 Gaussian 16, Revision B.01,

 ---------------------------------------------------------
 #p pop=NBO opt=(z-matrix) mp2/aug-cc-pvtz density=current
 ---------------------------------------------------------

 -----
 title
 -----
 Symbolic Z-matrix:
 Charge = -1 Multiplicity = 1

 SCF Done:  E(RHF) =  -535.650426857     A.U. after   11 cycles
 E2 =    -0.4835661892D+00 EUMP2 =    -0.53613399304637D+03
 Optimization completed.
    -- Stationary point found.
 Normal termination of Gaussian 16 at Wed Oct  6 17:16:37 2021.

 ---------------------------------------------------------
 #p pop=NBO opt=(z-matrix) mp2/aug-cc-pvtz density=current
 ---------------------------------------------------------

 -----
 title
 -----
 Symbolic Z-matrix:
 Charge = -1 Multiplicity = 1

 SCF Done:  E(RHF) =  -535.650173828     A.U. after   11 cycles
 E2 =    -0.4835387928D+00 EUMP2 =    -0.53613371262102D+03
 SCF Done:  E(RHF) =  -535.650341675     A.U. after    9 cycles
 E2 =    -0.4835367068D+00 EUMP2 =    -0.53613387838184D+03
 SCF Done:  E(RHF) =  -535.650420123     A.U. after    9 cycles
 E2 =    -0.4835729255D+00 EUMP2 =    -0.53613399304873D+03
 Optimization completed.
 Normal termination of Gaussian 16 at Wed Oct  6 17:17:13 2021.

 ---------------------------------------------------------
 #p pop=NBO opt=(z-matrix) mp2/aug-cc-pvtz density=current
 ---------------------------------------------------------

 -----
 title
 -----
 Symbolic Z-matrix:
 Charge = -1 Multiplicity = 1

 SCF Done:  E(RHF) =  -535.649425554     A.U. after   11 cycles
 E2 =    -0.4834584129D+00 EUMP2 =    -0.53613288396647D+03
 SCF Done:  E(RHF) =  -535.650097465     A.U. after    9 cycles
 E2 =    -0.4834407401D+00 EUMP2 =    -0.53613353820526D+03
 SCF Done:  E(RHF) =  -535.650415962     A.U. after   10 cycles
 E2 =    -0.4835769739D+00 EUMP2 =    -0.53613399293560D+03
 Normal termination of Gaussian 16 at Wed Oct  6 17:17:50 2021.

 ---------------------------------------------------------
 #p pop=NBO opt=(z-matrix) mp2/aug-cc-pvtz density=current
 ---------------------------------------------------------

 -----
 title
 -----
 Symbolic Z-matrix:
 Charge = -1 Multiplicity = 1

 SCF Done:  E(RHF) =  -535.648213726     A.U. after   11 cycles
 E2 =    -0.4833305138D+00 EUMP2 =    -0.53613154423973D+03
 SCF Done:  E(RHF) =  -535.649687255     A.U. after    9 cycles
 E2 =    -0.4832878379D+00 EUMP2 =    -0.53613297509248D+03
 SCF Done:  E(RHF) =  -535.650410736     A.U. after   10 cycles
 E2 =    -0.4835814083D+00 EUMP2 =    -0.53613399214436D+03
 E2 =    -0.4835758538D+00 EUMP2 =    -0.53613399304452D+03
 Normal termination of Gaussian 16 at Wed Oct  6 17:18:37 2021.

 ---------------------------------------------------------
 #p pop=NBO opt=(z-matrix) mp2/aug-cc-pvtz density=current
 ---------------------------------------------------------

 -----
 title
 -----
 Symbolic Z-matrix:
 Charge = -1 Multiplicity = 1

 E2 =    -0.4831642399D+00 EUMP2 =    -0.53612975281295D+03
 E2 =    -0.4830857599D+00 EUMP2 =    -0.53613217169837D+03
 E2 =    -0.4835823138D+00 EUMP2 =    -0.53613398997484D+03
 E2 =    -0.4835802920D+00 EUMP2 =    -0.53613399302260D+03

 ---------------------------------------------------------
 #p pop=NBO opt=(z-matrix) mp2/aug-cc-pvtz density=current
 ---------------------------------------------------------

 -----
 title
 -----
 Symbolic Z-matrix:
 Charge = -1 Multiplicity = 1

 E2 =    -0.4829720786D+00 EUMP2 =    -0.53612758680359D+03
 E2 =    -0.4828421212D+00 EUMP2 =    -0.53613108170416D+03
 E2 =    -0.4835734257D+00 EUMP2 =    -0.53613398789750D+03
 E2 =    -0.4835821235D+00 EUMP2 =    -0.53613399300275D+03
 E2 =    -0.4827688102D+00 EUMP2 =    -0.53612513426158D+03
 E2 =    -0.4822652878D+00 EUMP2 =    -0.53612781958807D+03
 E2 =    -0.4834797718D+00 EUMP2 =    -0.53613398678974D+03
 E2 =    -0.4835415530D+00 EUMP2 =    -0.53613399279391D+03
 Normal termination of Gaussian 16 at Wed Oct  6 17:21:42 2021.
 E2 =    -0.4823894938D+00 EUMP2 =    -0.53611972694599D+03
 E2 =    -0.4819588569D+00 EUMP2 =    -0.53612561236643D+03
 E2 =    -0.4833449652D+00 EUMP2 =    -0.53613387389404D+03
 E2 =    -0.4834699060D+00 EUMP2 =    -0.53613398912163D+03
 E2 =    -0.4835551635D+00 EUMP2 =    -0.53613399299032D+03
 Normal termination of Gaussian 16 at Wed Oct  6 17:22:39 2021.
 E2 =    -0.4820613025D+00 EUMP2 =    -0.53611144569166D+03
 E2 =    -0.4811978462D+00 EUMP2 =    -0.53611743655179D+03
 SCF Done:  E(RHF) =  -535.651102086     A.U. after   12 cycles
 E2 =    -0.4819906897D+00 EUMP2 =    -0.53613309277585D+03
 SCF Done:  E(RHF) =  -535.650614462     A.U. after   10 cycles
 E2 =    -0.4833399033D+00 EUMP2 =    -0.53613395436498D+03
 SCF Done:  E(RHF) =  -535.650474753     A.U. after    8 cycles
 E2 =    -0.4835170533D+00 EUMP2 =    -0.53613399180629D+03
 SCF Done:  E(RHF) =  -535.650432401     A.U. after    7 cycles
 E2 =    -0.4835606265D+00 EUMP2 =    -0.53613399302755D+03
    -- Stationary point found.
 Normal termination of Gaussian 16 at Wed Oct  6 17:23:46 2021.
 Gaussian 16:  ES64L-G16RevB.01 20-Dec-2017
 SCF Done:  E(RHF) =  -535.632027943     A.U. after   11 cycles
 E2 =    -0.4821283600D+00 EUMP2 =    -0.53611415630275D+03
 SCF Done:  E(RHF) =  -535.638916324     A.U. after   10 cycles
 E2 =    -0.4814061171D+00 EUMP2 =    -0.53612032244079D+03
 SCF Done:  E(RHF) =  -535.650068577     A.U. after   12 cycles
 E2 =    -0.4827285473D+00 EUMP2 =    -0.53613279712449D+03
 SCF Done:  E(RHF) =  -535.650707044     A.U. after   10 cycles
 E2 =    -0.4832602965D+00 EUMP2 =    -0.53613396734081D+03
 SCF Done:  E(RHF) =  -535.650479624     A.U. after    8 cycles
 E2 =    -0.4835125254D+00 EUMP2 =    -0.53613399214896D+03
 SCF Done:  E(RHF) =  -535.650422933     A.U. after    7 cycles
 E2 =    -0.4835701188D+00 EUMP2 =    -0.53613399305214D+03
 Optimization completed.
    -- Stationary point found.

                         Standard orientation:
 ---------------------------------------------------------------------
 Center     Atomic      Atomic             Coordinates (Angstroms)
 Number     Number       Type             X           Y           Z
 ---------------------------------------------------------------------
      1          8           0       -1.972315   -0.105213    0.000002
      2          1           0       -2.200805    0.827834    0.000002
      3         17           0        1.115270    0.004923    0.000002
      4          1           0       -0.980268   -0.069826   -0.000058
 ---------------------------------------------------------------------

 The electronic state is 1-A.
 Alpha  occ. eigenvalues -- -104.53004 -20.37743 -10.25451  -7.72060  -7.72054
 Alpha  occ. eigenvalues --   -7.72053  -1.15798  -0.76530  -0.51568  -0.40559
 Alpha  occ. eigenvalues --   -0.32255  -0.18219  -0.17752  -0.17706
 Alpha virt. eigenvalues --    0.13868   0.18208   0.25650   0.26704   0.27572
 Alpha virt. eigenvalues --    0.28774   0.30504   0.31084   0.35228   0.39681
 Alpha virt. eigenvalues --    0.41296   0.41907   0.43417   0.49909   0.55272

 Mulliken charges:
               1
     1  O   -0.547233
     2  H    0.165440
     3  Cl  -0.912108
     4  H    0.293901
 Sum of Mulliken charges =  -1.00000

 Dipole moment (field-independent basis, Debye):
    X=             -2.5881    Y=              1.3655    Z=             -0.0001  Tot=              2.9262
 Quadrupole moment (field-independent basis, Debye-Ang):
   XX=            -35.1911   YY=            -23.0952   ZZ=            -25.1264
   XY=             -3.7468   XZ=              0.0000   YZ=              0.0000

 Summary of Natural Population Analysis:

                                       Natural Population
                Natural  -----------------------------------------------
    Atom  No    Charge         Core      Valence    Rydberg      Total
 -----------------------------------------------------------------------
      O    1   -0.99520      1.99967     6.89276    0.10277     8.99520
      H    2    0.43622      0.00000     0.55140    0.01238     0.56378
     Cl    3   -0.93276     10.00008     7.78466    0.14801    17.93276
      H    4    0.49173      0.00000     0.48675    0.02152     0.50827
 =======================================================================
   * Total *   -1.00000     11.99976    15.71557    0.28467    28.00000

 Normal termination of Gaussian 16 at Wed Oct  6 17:24:52 2021.
