 Gaussian 16, Revision B.01,
 Gaussian 16:  ES64L-G16RevB.01 20-Dec-2017

 ----------------------------------------------------
 #p pop=NBO SP NoSymm mp2/aug-cc-pvtz density=current
 ----------------------------------------------------

 -----
 title
 -----
 Symbolic Z-matrix:
 Charge = -1 Multiplicity = 1

                          Input orientation:
 ---------------------------------------------------------------------
 Center     Atomic      Atomic             Coordinates (Angstroms)
 Number     Number       Type             X           Y           Z
 ---------------------------------------------------------------------
      1          8           0        0.000000    0.000000    0.000000
      2         17           0        1.697402    0.000000    0.000000
      3         35           0       -0.668661   -3.020050    0.000000
      4          1           0       -0.160402   -0.724464    0.622619
 ---------------------------------------------------------------------

 SCF Done:  E(RHF) =  -3107.46732269     A.U. after   14 cycles
 E2 =    -0.6995788205D+00 EUMP2 =    -0.31081669015150D+04

 Alpha  occ. eigenvalues -- -489.73968-104.74290 -64.87996 -58.23448 -58.23443
 Alpha  occ. eigenvalues --  -58.23438 -20.48253 -10.46242  -9.55245  -7.92957
 Alpha  occ. eigenvalues --   -7.92686  -7.92671  -7.16012  -7.15978  -7.15965
 Alpha  occ. eigenvalues --   -2.90184  -2.90175  -2.90156  -2.90113  -2.90112
 Alpha  occ. eigenvalues --   -1.25239  -0.91083  -0.71066  -0.56174  -0.45723
 Alpha  occ. eigenvalues --   -0.44749  -0.32186  -0.29574  -0.16542  -0.16031
 Alpha  occ. eigenvalues --   -0.15918
 Alpha virt. eigenvalues --    0.15029   0.17538   0.21703   0.22538   0.24292
 Alpha virt. eigenvalues --    0.25030   0.25137   0.27379   0.28112   0.30907
 Alpha virt. eigenvalues --    0.32501   0.33288   0.36478   0.39894   0.44131

 Mulliken charges:
               1
     1  O   -0.378731
     2  Cl   0.071266
     3  Br  -0.918828
     4  H    0.226293
 Sum of Mulliken charges =  -1.00000

 Dipole moment (field-independent basis, Debye):
    X=              2.1184    Y=             11.8282    Z=              0.5537  Tot=             12.0292
 Quadrupole moment (field-independent basis, Debye-Ang):
   XX=            -45.3449   YY=            -82.7216   ZZ=            -42.5968
   XY=             -9.1803   XZ=             -0.2545   YZ=             -0.1516

 Summary of Natural Population Analysis:

                                       Natural Population
                Natural  -----------------------------------------------
    Atom  No    Charge         Core      Valence    Rydberg      Total
 -----------------------------------------------------------------------
      O    1   -0.70236      1.99970     6.59385    0.10882     8.70236
     Cl    2    0.16189      9.99985     6.69560    0.14266    16.83811
     Br    3   -0.95332     27.98845     7.80540    0.15947    35.95332
      H    4    0.49379      0.00000     0.48430    0.02191     0.50621
 =======================================================================
   * Total *   -1.00000     39.98799    21.57915    0.43286    62.00000

 Normal termination of Gaussian 16 at Fri Nov  5 16:37:50 2021.
