 Gaussian 16, Revision B.01,
 Gaussian 16:  ES64L-G16RevB.01 20-Dec-2017

 ----------------------------------------------------
 #p pop=NBO SP NoSymm mp2/aug-cc-pvtz density=current
 ----------------------------------------------------

 -----
 title
 -----
 Symbolic Z-matrix:
 Charge = -1 Multiplicity = 1

                          Input orientation:
 ---------------------------------------------------------------------
 Center     Atomic      Atomic             Coordinates (Angstroms)
 Number     Number       Type             X           Y           Z
 ---------------------------------------------------------------------
      1          8           0        0.000000    0.000000    0.000000
      2         17           0        1.697052    0.000000    0.000000
      3         35           0       -0.668661   -3.020050    0.000000
      4          1           0       -0.208593   -0.942122    0.084421
 ---------------------------------------------------------------------

 SCF Done:  E(RHF) =  -3107.47931369     A.U. after   13 cycles
 E2 =    -0.7016210055D+00 EUMP2 =    -0.31081809346971D+04

 Alpha  occ. eigenvalues -- -489.75194-104.73601 -64.89229 -58.24679 -58.24675
 Alpha  occ. eigenvalues --  -58.24675 -20.46707 -10.45539  -9.56481  -7.92253
 Alpha  occ. eigenvalues --   -7.91987  -7.91978  -7.17255  -7.17210  -7.17209
 Alpha  occ. eigenvalues --   -2.91423  -2.91402  -2.91400  -2.91352  -2.91352
 Alpha  occ. eigenvalues --   -1.23950  -0.90412  -0.72656  -0.55215  -0.44658
 Alpha  occ. eigenvalues --   -0.43763  -0.31424  -0.28762  -0.18205  -0.17254
 Alpha  occ. eigenvalues --   -0.17248
 Alpha virt. eigenvalues --    0.15541   0.17911   0.21608   0.22756   0.24155
 Alpha virt. eigenvalues --    0.24705   0.25038   0.28011   0.30217   0.31167
 Alpha virt. eigenvalues --    0.32248   0.32811   0.35819   0.43104   0.43731

 Mulliken charges:
               1
     1  O   -0.461804
     2  Cl   0.057170
     3  Br  -0.873460
     4  H    0.278093
 Sum of Mulliken charges =  -1.00000

 Dipole moment (field-independent basis, Debye):
    X=              1.8102    Y=             10.8334    Z=              0.0583  Tot=             10.9837
 Quadrupole moment (field-independent basis, Debye-Ang):
   XX=            -45.0691   YY=            -78.8648   ZZ=            -43.2076
   XY=             -8.3097   XZ=             -0.0324   YZ=             -0.0149

 Summary of Natural Population Analysis:

                                       Natural Population
                Natural  -----------------------------------------------
    Atom  No    Charge         Core      Valence    Rydberg      Total
 -----------------------------------------------------------------------
      O    1   -0.74346      1.99966     6.63542    0.10838     8.74346
     Cl    2    0.15827      9.99983     6.69989    0.14200    16.84173
     Br    3   -0.89213     27.98816     7.75007    0.15390    35.89213
      H    4    0.47732      0.00000     0.49425    0.02843     0.52268
 =======================================================================
   * Total *   -1.00000     39.98765    21.57963    0.43271    62.00000

 Normal termination of Gaussian 16 at Fri Nov  5 16:35:33 2021.
