 Gaussian 16, Revision B.01,
 Gaussian 16:  ES64L-G16RevB.01 20-Dec-2017

 ----------------------------------------------------
 #p pop=NBO SP NoSymm mp2/aug-cc-pvtz density=current
 ----------------------------------------------------

 -----
 title
 -----
 Symbolic Z-matrix:
 Charge = -1 Multiplicity = 1

                          Input orientation:
 ---------------------------------------------------------------------
 Center     Atomic      Atomic             Coordinates (Angstroms)
 Number     Number       Type             X           Y           Z
 ---------------------------------------------------------------------
      1          8           0        0.000000    0.000000    0.000000
      2         17           0        1.697102    0.000000    0.000000
      3         35           0       -0.668661   -3.020050    0.000000
      4          1           0       -0.206208   -0.931353    0.168200
 ---------------------------------------------------------------------

 SCF Done:  E(RHF) =  -3107.47865119     A.U. after   13 cycles
 E2 =    -0.7014723835D+00 EUMP2 =    -0.31081801235690D+04

 Alpha  occ. eigenvalues -- -489.75123-104.73645 -64.89157 -58.24607 -58.24603
 Alpha  occ. eigenvalues --  -58.24603 -20.46803 -10.45583  -9.56409  -7.92297
 Alpha  occ. eigenvalues --   -7.92031  -7.92021  -7.17182  -7.17137  -7.17136
 Alpha  occ. eigenvalues --   -2.91350  -2.91330  -2.91329  -2.91279  -2.91279
 Alpha  occ. eigenvalues --   -1.24026  -0.90455  -0.72557  -0.55271  -0.44725
 Alpha  occ. eigenvalues --   -0.43824  -0.31469  -0.28815  -0.18103  -0.17179
 Alpha  occ. eigenvalues --   -0.17170
 Alpha virt. eigenvalues --    0.15520   0.17891   0.21619   0.22731   0.24158
 Alpha virt. eigenvalues --    0.24727   0.25039   0.27982   0.30271   0.30614
 Alpha virt. eigenvalues --    0.32325   0.33177   0.35955   0.42716   0.43855

 Mulliken charges:
               1
     1  O   -0.454072
     2  Cl   0.057811
     3  Br  -0.876274
     4  H    0.272535
 Sum of Mulliken charges =  -1.00000

 Dipole moment (field-independent basis, Debye):
    X=              1.8286    Y=             10.8904    Z=              0.1181  Tot=             11.0435
 Quadrupole moment (field-independent basis, Debye-Ang):
   XX=            -45.0849   YY=            -79.0940   ZZ=            -43.1769
   XY=             -8.3608   XZ=             -0.0650   YZ=             -0.0312

 Summary of Natural Population Analysis:

                                       Natural Population
                Natural  -----------------------------------------------
    Atom  No    Charge         Core      Valence    Rydberg      Total
 -----------------------------------------------------------------------
      O    1   -0.74137      1.99967     6.63330    0.10841     8.74137
     Cl    2    0.15854      9.99983     6.69962    0.14202    16.84146
     Br    3   -0.89643     27.98818     7.75402    0.15422    35.89643
      H    4    0.47926      0.00000     0.49266    0.02807     0.52074
 =======================================================================
   * Total *   -1.00000     39.98768    21.57960    0.43272    62.00000

 Normal termination of Gaussian 16 at Fri Nov  5 16:35:53 2021.
