 Gaussian 16, Revision B.01,
 Gaussian 16:  ES64L-G16RevB.01 20-Dec-2017

 ----------------------------------------------------
 #p pop=NBO SP NoSymm mp2/aug-cc-pvtz density=current
 ----------------------------------------------------

 -----
 title
 -----
 Symbolic Z-matrix:
 Charge = -1 Multiplicity = 1

                          Input orientation:
 ---------------------------------------------------------------------
 Center     Atomic      Atomic             Coordinates (Angstroms)
 Number     Number       Type             X           Y           Z
 ---------------------------------------------------------------------
      1          8           0        0.000000    0.000000    0.000000
      2         17           0        1.697502    0.000000    0.000000
      3         35           0       -0.668661   -3.020050    0.000000
      4          1           0       -0.134593   -0.607897    0.742009
 ---------------------------------------------------------------------

 SCF Done:  E(RHF) =  -3107.46205706     A.U. after   14 cycles
 E2 =    -0.6990563232D+00 EUMP2 =    -0.31081611133881D+04

 Alpha  occ. eigenvalues -- -489.73472-104.74533 -64.87498 -58.22950 -58.22945
 Alpha  occ. eigenvalues --  -58.22940 -20.48818 -10.46492  -9.54748  -7.93208
 Alpha  occ. eigenvalues --   -7.92935  -7.92918  -7.15512  -7.15483  -7.15466
 Alpha  occ. eigenvalues --   -2.89685  -2.89679  -2.89654  -2.89618  -2.89615
 Alpha  occ. eigenvalues --   -1.25747  -0.91311  -0.70478  -0.56554  -0.46107
 Alpha  occ. eigenvalues --   -0.45108  -0.32477  -0.29854  -0.15914  -0.15546
 Alpha  occ. eigenvalues --   -0.15395
 Alpha virt. eigenvalues --    0.14747   0.17382   0.21658   0.22560   0.24399
 Alpha virt. eigenvalues --    0.25130   0.25213   0.27104   0.27731   0.30934
 Alpha virt. eigenvalues --    0.31780   0.33555   0.36266   0.39396   0.43936

 Mulliken charges:
               1
     1  O   -0.367053
     2  Cl   0.075614
     3  Br  -0.938207
     4  H    0.229645
 Sum of Mulliken charges =  -1.00000

 Dipole moment (field-independent basis, Debye):
    X=              2.2390    Y=             12.2506    Z=              0.7213  Tot=             12.4744
 Quadrupole moment (field-independent basis, Debye-Ang):
   XX=            -45.4625   YY=            -84.2295   ZZ=            -42.2976
   XY=             -9.5302   XZ=             -0.3009   YZ=             -0.1423

 Summary of Natural Population Analysis:

                                       Natural Population
                Natural  -----------------------------------------------
    Atom  No    Charge         Core      Valence    Rydberg      Total
 -----------------------------------------------------------------------
      O    1   -0.68520      1.99971     6.57602    0.10948     8.68520
     Cl    2    0.16260      9.99985     6.69446    0.14310    16.83740
     Br    3   -0.96884     27.98849     7.81883    0.16152    35.96884
      H    4    0.49144      0.00000     0.48932    0.01924     0.50856
 =======================================================================
   * Total *   -1.00000     39.98805    21.57862    0.43333    62.00000

 Normal termination of Gaussian 16 at Fri Nov  5 16:38:29 2021.
