 Gaussian 16, Revision B.01,
 Gaussian 16:  ES64L-G16RevB.01 20-Dec-2017

 ----------------------------------------------------
 #p pop=NBO SP NoSymm mp2/aug-cc-pvtz density=current
 ----------------------------------------------------

 -----
 title
 -----
 Symbolic Z-matrix:
 Charge = -1 Multiplicity = 1

                          Input orientation:
 ---------------------------------------------------------------------
 Center     Atomic      Atomic             Coordinates (Angstroms)
 Number     Number       Type             X           Y           Z
 ---------------------------------------------------------------------
      1          8           0        0.000000    0.000000    0.000000
      2         17           0        1.697152    0.000000    0.000000
      3         35           0       -0.668661   -3.020050    0.000000
      4          1           0       -0.202255   -0.913496    0.250698
 ---------------------------------------------------------------------

 SCF Done:  E(RHF) =  -3107.47756754     A.U. after   13 cycles
 E2 =    -0.7012414562D+00 EUMP2 =    -0.31081788089932D+04

 Alpha  occ. eigenvalues -- -489.75007-104.73714 -64.89040 -58.24491 -58.24487
 Alpha  occ. eigenvalues --  -58.24485 -20.46957 -10.45654  -9.56292  -7.92368
 Alpha  occ. eigenvalues --   -7.92102  -7.92091  -7.17064  -7.17020  -7.17018
 Alpha  occ. eigenvalues --   -2.91233  -2.91214  -2.91211  -2.91161  -2.91161
 Alpha  occ. eigenvalues --   -1.24151  -0.90524  -0.72398  -0.55363  -0.44832
 Alpha  occ. eigenvalues --   -0.43922  -0.31543  -0.28899  -0.17940  -0.17062
 Alpha  occ. eigenvalues --   -0.17041
 Alpha virt. eigenvalues --    0.15483   0.17858   0.21635   0.22695   0.24166
 Alpha virt. eigenvalues --    0.24762   0.25042   0.27931   0.29981   0.30445
 Alpha virt. eigenvalues --    0.32440   0.33396   0.36151   0.42227   0.43962

 Mulliken charges:
               1
     1  O   -0.442218
     2  Cl   0.058951
     3  Br  -0.880773
     4  H    0.264041
 Sum of Mulliken charges =  -1.00000

 Dipole moment (field-independent basis, Debye):
    X=              1.8582    Y=             10.9830    Z=              0.1806  Tot=             11.1406
 Quadrupole moment (field-independent basis, Debye-Ang):
   XX=            -45.1105   YY=            -79.4640   ZZ=            -43.1258
   XY=             -8.4435   XZ=             -0.0979   YZ=             -0.0500

 Summary of Natural Population Analysis:

                                       Natural Population
                Natural  -----------------------------------------------
    Atom  No    Charge         Core      Valence    Rydberg      Total
 -----------------------------------------------------------------------
      O    1   -0.73788      1.99967     6.62975    0.10845     8.73788
     Cl    2    0.15896      9.99983     6.69917    0.14204    16.84104
     Br    3   -0.90323     27.98822     7.76027    0.15474    35.90323
      H    4    0.48215      0.00000     0.49037    0.02748     0.51785
 =======================================================================
   * Total *   -1.00000     39.98772    21.57956    0.43272    62.00000

 Normal termination of Gaussian 16 at Fri Nov  5 16:36:12 2021.
