 Gaussian 16, Revision B.01,
 Gaussian 16:  ES64L-G16RevB.01 20-Dec-2017

 ----------------------------------------------------
 #p pop=NBO SP NoSymm mp2/aug-cc-pvtz density=current
 ----------------------------------------------------

 -----
 title
 -----
 Symbolic Z-matrix:
 Charge = -1 Multiplicity = 1

                          Input orientation:
 ---------------------------------------------------------------------
 Center     Atomic      Atomic             Coordinates (Angstroms)
 Number     Number       Type             X           Y           Z
 ---------------------------------------------------------------------
      1          8           0        0.000000    0.000000    0.000000
      2         17           0        1.697352    0.000000    0.000000
      3         35           0       -0.668661   -3.020050    0.000000
      4          1           0       -0.171522   -0.774689    0.555580
 ---------------------------------------------------------------------

 SCF Done:  E(RHF) =  -3107.46982386     A.U. after   14 cycles
 E2 =    -0.6999078412D+00 EUMP2 =    -0.31081697317041D+04

 Alpha  occ. eigenvalues -- -489.74214-104.74162 -64.88242 -58.23694 -58.23689
 Alpha  occ. eigenvalues --  -58.23685 -20.47961 -10.46111  -9.55492  -7.92826
 Alpha  occ. eigenvalues --   -7.92556  -7.92542  -7.16260  -7.16223  -7.16212
 Alpha  occ. eigenvalues --   -2.90431  -2.90420  -2.90404  -2.90359  -2.90358
 Alpha  occ. eigenvalues --   -1.24987  -0.90961  -0.71367  -0.55985  -0.45524
 Alpha  occ. eigenvalues --   -0.44563  -0.32038  -0.29426  -0.16862  -0.16272
 Alpha  occ. eigenvalues --   -0.16178
 Alpha virt. eigenvalues --    0.15152   0.17615   0.21707   0.22548   0.24250
 Alpha virt. eigenvalues --    0.24974   0.25105   0.27515   0.28368   0.30854
 Alpha virt. eigenvalues --    0.32785   0.33174   0.36541   0.40246   0.44171

 Mulliken charges:
               1
     1  O   -0.387488
     2  Cl   0.068423
     3  Br  -0.909731
     4  H    0.228795
 Sum of Mulliken charges =  -1.00000

 Dipole moment (field-independent basis, Debye):
    X=              2.0580    Y=             11.6253    Z=              0.4716  Tot=             11.8155
 Quadrupole moment (field-independent basis, Debye-Ang):
   XX=            -45.2883   YY=            -81.9633   ZZ=            -42.7338
   XY=             -9.0070   XZ=             -0.2262   YZ=             -0.1382

 Summary of Natural Population Analysis:

                                       Natural Population
                Natural  -----------------------------------------------
    Atom  No    Charge         Core      Valence    Rydberg      Total
 -----------------------------------------------------------------------
      O    1   -0.71106      1.99969     6.60271    0.10866     8.71106
     Cl    2    0.16136      9.99984     6.69633    0.14247    16.83864
     Br    3   -0.94354     27.98841     7.79675    0.15837    35.94354
      H    4    0.49324      0.00000     0.48352    0.02324     0.50676
 =======================================================================
   * Total *   -1.00000     39.98795    21.57931    0.43274    62.00000

 Normal termination of Gaussian 16 at Fri Nov  5 16:37:29 2021.
