 Gaussian 16, Revision B.01,
 Gaussian 16:  ES64L-G16RevB.01 20-Dec-2017

 ----------------------------------------------------
 #p pop=NBO SP NoSymm mp2/aug-cc-pvtz density=current
 ----------------------------------------------------

 -----
 title
 -----
 Symbolic Z-matrix:
 Charge = -1 Multiplicity = 1

                          Input orientation:
 ---------------------------------------------------------------------
 Center     Atomic      Atomic             Coordinates (Angstroms)
 Number     Number       Type             X           Y           Z
 ---------------------------------------------------------------------
      1          8           0        0.000000    0.000000    0.000000
      2         17           0        1.697202    0.000000    0.000000
      3         35           0       -0.668661   -3.020050    0.000000
      4          1           0       -0.196762   -0.888687    0.331289
 ---------------------------------------------------------------------

 SCF Done:  E(RHF) =  -3107.47609325     A.U. after   13 cycles
 E2 =    -0.7009481075D+00 EUMP2 =    -0.31081770413613D+04

 Alpha  occ. eigenvalues -- -489.74852-104.73806 -64.88884 -58.24335 -58.24330
 Alpha  occ. eigenvalues --  -58.24328 -20.47160 -10.45748  -9.56135  -7.92462
 Alpha  occ. eigenvalues --   -7.92195  -7.92184  -7.16907  -7.16863  -7.16860
 Alpha  occ. eigenvalues --   -2.91076  -2.91059  -2.91053  -2.91003  -2.91002
 Alpha  occ. eigenvalues --   -1.24317  -0.90614  -0.72188  -0.55485  -0.44974
 Alpha  occ. eigenvalues --   -0.44051  -0.31641  -0.29008  -0.17724  -0.16906
 Alpha  occ. eigenvalues --   -0.16869
 Alpha virt. eigenvalues --    0.15428   0.17812   0.21657   0.22652   0.24177
 Alpha virt. eigenvalues --    0.24807   0.25049   0.27856   0.29486   0.30556
 Alpha virt. eigenvalues --    0.32578   0.33447   0.36346   0.41691   0.44055

 Mulliken charges:
               1
     1  O   -0.427810
     2  Cl   0.060640
     3  Br  -0.886654
     4  H    0.253824
 Sum of Mulliken charges =  -1.00000

 Dipole moment (field-independent basis, Debye):
    X=              1.8979    Y=             11.1076    Z=              0.2469  Tot=             11.2713
 Quadrupole moment (field-independent basis, Debye-Ang):
   XX=            -45.1449   YY=            -79.9585   ZZ=            -43.0550
   XY=             -8.5543   XZ=             -0.1308   YZ=             -0.0715

 Summary of Natural Population Analysis:

                                       Natural Population
                Natural  -----------------------------------------------
    Atom  No    Charge         Core      Valence    Rydberg      Total
 -----------------------------------------------------------------------
      O    1   -0.73297      1.99968     6.62480    0.10849     8.73297
     Cl    2    0.15950      9.99983     6.69857    0.14210    16.84050
     Br    3   -0.91203     27.98827     7.76832    0.15545    35.91203
      H    4    0.48551      0.00000     0.48782    0.02667     0.51449
 =======================================================================
   * Total *   -1.00000     39.98778    21.57951    0.43271    62.00000

 Normal termination of Gaussian 16 at Fri Nov  5 16:36:32 2021.
