 Gaussian 16, Revision B.01,
 Gaussian 16:  ES64L-G16RevB.01 20-Dec-2017

 ----------------------------------------------------
 #p pop=NBO SP NoSymm mp2/aug-cc-pvtz density=current
 ----------------------------------------------------

 -----
 title
 -----
 Symbolic Z-matrix:
 Charge = -1 Multiplicity = 1

                          Input orientation:
 ---------------------------------------------------------------------
 Center     Atomic      Atomic             Coordinates (Angstroms)
 Number     Number       Type             X           Y           Z
 ---------------------------------------------------------------------
      1          8           0        0.000000    0.000000    0.000000
      2         17           0        1.697002    0.000000    0.000000
      3         35           0       -0.668661   -3.020050    0.000000
      4          1           0       -0.209389   -0.945721    0.000000
 ---------------------------------------------------------------------

 SCF Done:  E(RHF) =  -3107.47953788     A.U. after   13 cycles
 E2 =    -0.7016714899D+00 EUMP2 =    -0.31081812093692D+04

 Alpha  occ. eigenvalues -- -489.75218-104.73586 -64.89253 -58.24703 -58.24700
 Alpha  occ. eigenvalues --  -58.24699 -20.46674 -10.45524  -9.56506  -7.92237
 Alpha  occ. eigenvalues --   -7.91972  -7.91963  -7.17279  -7.17235  -7.17233
 Alpha  occ. eigenvalues --   -2.91447  -2.91427  -2.91425  -2.91377  -2.91377
 Alpha  occ. eigenvalues --   -1.23925  -0.90397  -0.72690  -0.55196  -0.44636
 Alpha  occ. eigenvalues --   -0.43743  -0.31408  -0.28743  -0.18239  -0.17280
 Alpha  occ. eigenvalues --   -0.17273
 Alpha virt. eigenvalues --    0.15548   0.17917   0.21604   0.22765   0.24153
 Alpha virt. eigenvalues --    0.24697   0.25038   0.28021   0.30192   0.31494
 Alpha virt. eigenvalues --    0.32220   0.32551   0.35772   0.43289   0.43640

 Mulliken charges:
               1
     1  O   -0.464479
     2  Cl   0.056968
     3  Br  -0.872505
     4  H    0.280015
 Sum of Mulliken charges =  -1.00000

 Dipole moment (field-independent basis, Debye):
    X=              1.8039    Y=             10.8141    Z=             -0.0000  Tot=             10.9635
 Quadrupole moment (field-independent basis, Debye-Ang):
   XX=            -45.0639   YY=            -78.7872   ZZ=            -43.2179
   XY=             -8.2924   XZ=              0.0000   YZ=             -0.0000

 Summary of Natural Population Analysis:

                                       Natural Population
                Natural  -----------------------------------------------
    Atom  No    Charge         Core      Valence    Rydberg      Total
 -----------------------------------------------------------------------
      O    1   -0.74417      1.99966     6.63613    0.10837     8.74417
     Cl    2    0.15820      9.99983     6.69997    0.14200    16.84180
     Br    3   -0.89066     27.98815     7.74872    0.15379    35.89066
      H    4    0.47663      0.00000     0.49481    0.02855     0.52337
 =======================================================================
   * Total *   -1.00000     39.98765    21.57964    0.43271    62.00000

 Normal termination of Gaussian 16 at Fri Nov  5 16:35:13 2021.
