 Gaussian 16, Revision B.01,
 Gaussian 16:  ES64L-G16RevB.01 20-Dec-2017

 -------------------------------------------------
 #p opt=(z-matrix) mp2/aug-cc-pvtz density=current
 -------------------------------------------------

 -----
 title
 -----
 Symbolic Z-matrix:
 Charge = -1 Multiplicity = 1

 SCF Done:  E(RHF) =  -3107.47378423     A.U. after   13 cycles
 E2 =    -0.7052348921D+00 EUMP2 =    -0.31081790191213D+04
 SCF Done:  E(RHF) =  -3107.47899764     A.U. after   11 cycles
 E2 =    -0.7021697870D+00 EUMP2 =    -0.31081811674241D+04
 SCF Done:  E(RHF) =  -3107.47953788     A.U. after   10 cycles
 E2 =    -0.7016714862D+00 EUMP2 =    -0.31081812093655D+04
 Optimization completed.
    -- Stationary point found.

                         Standard orientation:
 ---------------------------------------------------------------------
 Center     Atomic      Atomic             Coordinates (Angstroms)
 Number     Number       Type             X           Y           Z
 ---------------------------------------------------------------------
      1          8           0        0.523008    1.670465    0.000000
      2         17           0        2.115674    1.084607    0.000000
      3         35           0       -1.147158   -0.933063    0.000000
      4          1           0       -0.000000    0.855177    0.000000
 ---------------------------------------------------------------------

 The electronic state is 1-A'.
 Alpha  occ. eigenvalues -- -489.75218-104.73586 -64.89253 -58.24703 -58.24700
 Alpha  occ. eigenvalues --  -58.24699 -20.46674 -10.45524  -9.56506  -7.92237
 Alpha  occ. eigenvalues --   -7.91972  -7.91963  -7.17279  -7.17235  -7.17233
 Alpha  occ. eigenvalues --   -2.91447  -2.91427  -2.91425  -2.91377  -2.91377
 Alpha  occ. eigenvalues --   -1.23925  -0.90397  -0.72690  -0.55196  -0.44636
 Alpha  occ. eigenvalues --   -0.43743  -0.31408  -0.28743  -0.18239  -0.17280
 Alpha  occ. eigenvalues --   -0.17273
 Alpha virt. eigenvalues --    0.15548   0.17917   0.21604   0.22765   0.24153
 Alpha virt. eigenvalues --    0.24697   0.25038   0.28021   0.30192   0.31494
 Alpha virt. eigenvalues --    0.32220   0.32551   0.35772   0.43289   0.43640

 Mulliken charges:
               1
     1  O   -0.464479
     2  Cl   0.056968
     3  Br  -0.872505
     4  H    0.280015
 Sum of Mulliken charges =  -1.00000

 Dipole moment (field-independent basis, Debye):
    X=              2.9143    Y=              1.5029    Z=              0.0000  Tot=              3.2790
 Quadrupole moment (field-independent basis, Debye-Ang):
   XX=            -50.0945   YY=            -50.9702   ZZ=            -43.2179
   XY=             -7.3917   XZ=              0.0000   YZ=              0.0000

 Normal termination of Gaussian 16 at Fri Nov  5 16:03:02 2021.
