 Gaussian 16, Revision B.01,
 Gaussian 16:  ES64L-G16RevB.01 20-Dec-2017

 ----------------------------------------------------
 #p pop=NBO SP NoSymm mp2/aug-cc-pvtz density=current
 ----------------------------------------------------

 -----
 title
 -----
 Symbolic Z-matrix:
 Charge = -1 Multiplicity = 1

                          Input orientation:
 ---------------------------------------------------------------------
 Center     Atomic      Atomic             Coordinates (Angstroms)
 Number     Number       Type             X           Y           Z
 ---------------------------------------------------------------------
      1          8           0        0.000000    0.000000    0.000000
      2         17           0        1.697452    0.000000    0.000000
      3         35           0       -0.668661   -3.020050    0.000000
      4          1           0       -0.148061   -0.668725    0.684920
 ---------------------------------------------------------------------

 SCF Done:  E(RHF) =  -3107.46471720     A.U. after   14 cycles
 E2 =    -0.6992902988D+00 EUMP2 =    -0.31081640075018D+04

 Alpha  occ. eigenvalues -- -489.73719-104.74414 -64.87746 -58.23197 -58.23193
 Alpha  occ. eigenvalues --  -58.23188 -20.48541 -10.46370  -9.54996  -7.93085
 Alpha  occ. eigenvalues --   -7.92813  -7.92798  -7.15761  -7.15729  -7.15714
 Alpha  occ. eigenvalues --   -2.89933  -2.89926  -2.89903  -2.89864  -2.89862
 Alpha  occ. eigenvalues --   -1.25495  -0.91201  -0.70767  -0.56366  -0.45919
 Alpha  occ. eigenvalues --   -0.44933  -0.32334  -0.29718  -0.16224  -0.15787
 Alpha  occ. eigenvalues --   -0.15655
 Alpha virt. eigenvalues --    0.14893   0.17459   0.21685   0.22543   0.24342
 Alpha virt. eigenvalues --    0.25082   0.25173   0.27240   0.27902   0.30934
 Alpha virt. eigenvalues --    0.32151   0.33425   0.36380   0.39613   0.44052

 Mulliken charges:
               1
     1  O   -0.372209
     2  Cl   0.073747
     3  Br  -0.928426
     4  H    0.226888
 Sum of Mulliken charges =  -1.00000

 Dipole moment (field-independent basis, Debye):
    X=              2.1792    Y=             12.0380    Z=              0.6375  Tot=             12.2503
 Quadrupole moment (field-independent basis, Debye-Ang):
   XX=            -45.4035   YY=            -83.4841   ZZ=            -42.4498
   XY=             -9.3562   XZ=             -0.2797   YZ=             -0.1542

 Summary of Natural Population Analysis:

                                       Natural Population
                Natural  -----------------------------------------------
    Atom  No    Charge         Core      Valence    Rydberg      Total
 -----------------------------------------------------------------------
      O    1   -0.69364      1.99970     6.58484    0.10909     8.69364
     Cl    2    0.16231      9.99985     6.69496    0.14287    16.83769
     Br    3   -0.96183     27.98847     7.81282    0.16053    35.96183
      H    4    0.49315      0.00000     0.48629    0.02056     0.50685
 =======================================================================
   * Total *   -1.00000     39.98802    21.57892    0.43306    62.00000

 Normal termination of Gaussian 16 at Fri Nov  5 16:38:09 2021.
