 Gaussian 16, Revision B.01,
 Gaussian 16:  ES64L-G16RevB.01 20-Dec-2017

 ----------------------------------------------------
 #p pop=NBO SP NoSymm mp2/aug-cc-pvtz density=current
 ----------------------------------------------------

 -----
 title
 -----
 Symbolic Z-matrix:
 Charge = -1 Multiplicity = 1

                          Input orientation:
 ---------------------------------------------------------------------
 Center     Atomic      Atomic             Coordinates (Angstroms)
 Number     Number       Type             X           Y           Z
 ---------------------------------------------------------------------
      1          8           0        0.000000    0.000000    0.000000
      2         17           0        1.697302    0.000000    0.000000
      3         35           0       -0.668661   -3.020050    0.000000
      4          1           0       -0.181336   -0.819018    0.484312
 ---------------------------------------------------------------------

 SCF Done:  E(RHF) =  -3107.47216183     A.U. after   14 cycles
 E2 =    -0.7002595541D+00 EUMP2 =    -0.31081724213840D+04

 Alpha  occ. eigenvalues -- -489.74448-104.74035 -64.88478 -58.23929 -58.23924
 Alpha  occ. eigenvalues --  -58.23921 -20.47674 -10.45982  -9.55727  -7.92696
 Alpha  occ. eigenvalues --   -7.92428  -7.92415  -7.16497  -7.16457  -7.16449
 Alpha  occ. eigenvalues --   -2.90667  -2.90654  -2.90642  -2.90594  -2.90593
 Alpha  occ. eigenvalues --   -1.24743  -0.90838  -0.71661  -0.55803  -0.45328
 Alpha  occ. eigenvalues --   -0.44380  -0.31894  -0.29279  -0.17173  -0.16504
 Alpha  occ. eigenvalues --   -0.16429
 Alpha virt. eigenvalues --    0.15261   0.17688   0.21698   0.22573   0.24218
 Alpha virt. eigenvalues --    0.24916   0.25080   0.27644   0.28679   0.30775
 Alpha virt. eigenvalues --    0.32847   0.33218   0.36551   0.40670   0.44169

 Mulliken charges:
               1
     1  O   -0.398943
     2  Cl   0.065528
     3  Br  -0.901295
     4  H    0.234710
 Sum of Mulliken charges =  -1.00000

 Dipole moment (field-independent basis, Debye):
    X=              1.9998    Y=             11.4340    Z=              0.3926  Tot=             11.6142
 Quadrupole moment (field-independent basis, Debye-Ang):
   XX=            -45.2352   YY=            -81.2330   ZZ=            -42.8575
   XY=             -8.8413   XZ=             -0.1956   YZ=             -0.1181

 Summary of Natural Population Analysis:

                                       Natural Population
                Natural  -----------------------------------------------
    Atom  No    Charge         Core      Valence    Rydberg      Total
 -----------------------------------------------------------------------
      O    1   -0.71931      1.99969     6.61105    0.10857     8.71931
     Cl    2    0.16075      9.99984     6.69710    0.14230    16.83925
     Br    3   -0.93294     27.98837     7.78727    0.15730    35.93294
      H    4    0.49150      0.00000     0.48399    0.02451     0.50850
 =======================================================================
   * Total *   -1.00000     39.98790    21.57941    0.43269    62.00000

 Normal termination of Gaussian 16 at Fri Nov  5 16:37:10 2021.
