 Gaussian 16, Revision B.01,
 Gaussian 16:  ES64L-G16RevB.01 20-Dec-2017

 ----------------------------------------------------
 #p pop=NBO SP NoSymm mp2/aug-cc-pvtz density=current
 ----------------------------------------------------

 -----
 title
 -----
 Symbolic Z-matrix:
 Charge = -1 Multiplicity = 1

                          Input orientation:
 ---------------------------------------------------------------------
 Center     Atomic      Atomic             Coordinates (Angstroms)
 Number     Number       Type             X           Y           Z
 ---------------------------------------------------------------------
      1          8           0        0.000000    0.000000    0.000000
      2         17           0        1.697252    0.000000    0.000000
      3         35           0       -0.668661   -3.020050    0.000000
      4          1           0       -0.189771   -0.857114    0.409358
 ---------------------------------------------------------------------

 SCF Done:  E(RHF) =  -3107.47427266     A.U. after   13 cycles
 E2 =    -0.7006135410D+00 EUMP2 =    -0.31081748862013D+04

 Alpha  occ. eigenvalues -- -489.74663-104.73915 -64.88694 -58.24145 -58.24140
 Alpha  occ. eigenvalues --  -58.24138 -20.47403 -10.45859  -9.55944  -7.92573
 Alpha  occ. eigenvalues --   -7.92305  -7.92293  -7.16715  -7.16673  -7.16667
 Alpha  occ. eigenvalues --   -2.90885  -2.90870  -2.90861  -2.90811  -2.90811
 Alpha  occ. eigenvalues --   -1.24517  -0.90720  -0.71939  -0.55634  -0.45142
 Alpha  occ. eigenvalues --   -0.44207  -0.31760  -0.29137  -0.17464  -0.16717
 Alpha  occ. eigenvalues --   -0.16662
 Alpha virt. eigenvalues --    0.15353   0.17755   0.21679   0.22609   0.24194
 Alpha virt. eigenvalues --    0.24860   0.25062   0.27759   0.29050   0.30673
 Alpha virt. eigenvalues --    0.32725   0.33368   0.36487   0.41159   0.44127

 Mulliken charges:
               1
     1  O   -0.412781
     2  Cl   0.062866
     3  Br  -0.893574
     4  H    0.243488
 Sum of Mulliken charges =  -1.00000

 Dipole moment (field-independent basis, Debye):
    X=              1.9457    Y=             11.2597    Z=              0.3176  Tot=             11.4310
 Quadrupole moment (field-independent basis, Debye-Ang):
   XX=            -45.1869   YY=            -80.5562   ZZ=            -42.9652
   XY=             -8.6886   XZ=             -0.1636   YZ=             -0.0949

 Summary of Natural Population Analysis:

                                       Natural Population
                Natural  -----------------------------------------------
    Atom  No    Charge         Core      Valence    Rydberg      Total
 -----------------------------------------------------------------------
      O    1   -0.72672      1.99968     6.61851    0.10853     8.72672
     Cl    2    0.16011      9.99984     6.69787    0.14218    16.83989
     Br    3   -0.92219     27.98832     7.77755    0.15631    35.92219
      H    4    0.48879      0.00000     0.48554    0.02567     0.51121
 =======================================================================
   * Total *   -1.00000     39.98784    21.57947    0.43269    62.00000

 Normal termination of Gaussian 16 at Fri Nov  5 16:36:51 2021.
