 Gaussian 16, Revision B.01,
 Gaussian 16:  ES64L-G16RevB.01 20-Dec-2017

 --------------------------------------------
 #p SP NoSymm mp2/aug-cc-pvtz density=current
 --------------------------------------------

 -----
 title
 -----
 Symbolic Z-matrix:
 Charge = -1 Multiplicity = 1

                          Input orientation:
 ---------------------------------------------------------------------
 Center     Atomic      Atomic             Coordinates (Angstroms)
 Number     Number       Type             X           Y           Z
 ---------------------------------------------------------------------
      1          8           0        0.000000    0.000000    0.000000
      2         17           0        2.904676    0.000000    0.000000
      3         17           0       -0.393687    1.636049    0.000000
      4          1           0        0.486749    0.000000    0.843074
 ---------------------------------------------------------------------

 SCF Done:  E(RHF) =  -994.497500297     A.U. after   13 cycles
 E2 =    -0.6634816727D+00 EUMP2 =    -0.99516098196933D+03

 Alpha  occ. eigenvalues -- -104.74007-104.51688 -20.48295 -10.45989 -10.24128
 Alpha  occ. eigenvalues --   -7.92709  -7.92435  -7.92416  -7.70736  -7.70729
 Alpha  occ. eigenvalues --   -7.70727  -1.25671  -0.90632  -0.74955  -0.56148
 Alpha  occ. eigenvalues --   -0.45849  -0.44914  -0.31902  -0.29176  -0.16661
 Alpha  occ. eigenvalues --   -0.16446  -0.16212
 Alpha virt. eigenvalues --    0.14886   0.17772   0.22080   0.23218   0.26530
 Alpha virt. eigenvalues --    0.27452   0.27879   0.29050   0.29787   0.31404
 Alpha virt. eigenvalues --    0.32093   0.35359   0.39753   0.41752   0.45183

 Mulliken charges:
               1
     1  O   -0.360160
     2  Cl  -0.955619
     3  Cl   0.073581
     4  H    0.242198
 Sum of Mulliken charges =  -1.00000

 Dipole moment (field-independent basis, Debye):
    X=            -11.9066    Y=             -0.5326    Z=              0.9305  Tot=             11.9547
 Quadrupole moment (field-independent basis, Debye-Ang):
   XX=            -76.1384   YY=            -36.9183   ZZ=            -35.3542
   XY=              0.5291   XZ=              0.2996   YZ=             -0.3059

 Normal termination of Gaussian 16 at Thu Sep 16 15:38:41 2021.
