 Gaussian 16, Revision B.01,
 Gaussian 16:  ES64L-G16RevB.01 20-Dec-2017

 --------------------------------------------
 #p SP NoSymm mp2/aug-cc-pvtz density=current
 --------------------------------------------

 -----
 title
 -----
 Symbolic Z-matrix:
 Charge = -1 Multiplicity = 1

                          Input orientation:
 ---------------------------------------------------------------------
 Center     Atomic      Atomic             Coordinates (Angstroms)
 Number     Number       Type             X           Y           Z
 ---------------------------------------------------------------------
      1          8           0        0.000000    0.000000    0.000000
      2         17           0        2.904676    0.000000    0.000000
      3         17           0       -0.393687    1.636049    0.000000
      4          1           0        0.251050    0.000000    0.936931
 ---------------------------------------------------------------------

 SCF Done:  E(RHF) =  -994.488830220     A.U. after   13 cycles
 E2 =    -0.6636254599D+00 EUMP2 =    -0.99515245568025D+03

 Alpha  occ. eigenvalues -- -104.74279-104.51003 -20.48920 -10.46275 -10.23437
 Alpha  occ. eigenvalues --   -7.92996  -7.92719  -7.92697  -7.70043  -7.70039
 Alpha  occ. eigenvalues --   -7.70036  -1.26462  -0.90867  -0.74199  -0.56711
 Alpha  occ. eigenvalues --   -0.46306  -0.45328  -0.32242  -0.29488  -0.15873
 Alpha  occ. eigenvalues --   -0.15758  -0.15470
 Alpha virt. eigenvalues --    0.14390   0.17586   0.21964   0.23233   0.26615
 Alpha virt. eigenvalues --    0.27024   0.28098   0.29310   0.29740   0.30616
 Alpha virt. eigenvalues --    0.31792   0.35461   0.39388   0.41884   0.44260

 Mulliken charges:
               1
     1  O   -0.341820
     2  Cl  -0.977174
     3  Cl   0.071196
     4  H    0.247798
 Sum of Mulliken charges =  -1.00000

 Dipole moment (field-independent basis, Debye):
    X=            -12.5094    Y=             -0.5158    Z=              1.1193  Tot=             12.5700
 Quadrupole moment (field-independent basis, Debye-Ang):
   XX=            -77.6961   YY=            -36.9230   ZZ=            -34.9923
   XY=              0.5895   XZ=              0.0274   YZ=             -0.3632

 Normal termination of Gaussian 16 at Thu Sep 16 15:38:54 2021.
