 Gaussian 16, Revision B.01,
 Gaussian 16:  ES64L-G16RevB.01 20-Dec-2017

 -------------------------------------------------
 #p opt=(z-matrix) mp2/aug-cc-pvtz density=current
 -------------------------------------------------

 -----
 title
 -----
 Symbolic Z-matrix:
 Charge = -1 Multiplicity = 1

 SCF Done:  E(RHF) =  -535.650426857     A.U. after   11 cycles
 E2 =    -0.4835661892D+00 EUMP2 =    -0.53613399304637D+03
 Optimization completed.
    -- Stationary point found.
 SCF Done:  E(RHF) =  -535.650173828     A.U. after    9 cycles
 E2 =    -0.4835387945D+00 EUMP2 =    -0.53613371262268D+03
 SCF Done:  E(RHF) =  -535.650192222     A.U. after    6 cycles
 E2 =    -0.4835205352D+00 EUMP2 =    -0.53613371275719D+03
 Optimization completed.
 SCF Done:  E(RHF) =  -535.649444610     A.U. after    9 cycles
 E2 =    -0.4834402489D+00 EUMP2 =    -0.53613288485888D+03
 SCF Done:  E(RHF) =  -535.649512594     A.U. after    7 cycles
 E2 =    -0.4833740125D+00 EUMP2 =    -0.53613288660697D+03
 SCF Done:  E(RHF) =  -535.648305596     A.U. after    9 cycles
 E2 =    -0.4832468453D+00 EUMP2 =    -0.53613155244158D+03
 SCF Done:  E(RHF) =  -535.648446276     A.U. after    7 cycles
 E2 =    -0.4831111366D+00 EUMP2 =    -0.53613155741313D+03
 SCF Done:  E(RHF) =  -535.646837231     A.U. after   10 cycles
 E2 =    -0.4829474685D+00 EUMP2 =    -0.53612978469956D+03
 SCF Done:  E(RHF) =  -535.646987273     A.U. after    7 cycles
 E2 =    -0.4828032864D+00 EUMP2 =    -0.53612979055969D+03
 SCF Done:  E(RHF) =  -535.645043669     A.U. after   10 cycles
 E2 =    -0.4826164048D+00 EUMP2 =    -0.53612766007407D+03
 E2 =    -0.4824621271D+00 EUMP2 =    -0.53612766722556D+03
 SCF Done:  E(RHF) =  -535.643000571     A.U. after   10 cycles
 E2 =    -0.4822673866D+00 EUMP2 =    -0.53612526795773D+03
 SCF Done:  E(RHF) =  -535.643158984     A.U. after    7 cycles
 E2 =    -0.4821163423D+00 EUMP2 =    -0.53612527532605D+03
 SCF Done:  E(RHF) =  -535.640765387     A.U. after   10 cycles
 E2 =    -0.4819291181D+00 EUMP2 =    -0.53612269450464D+03
 SCF Done:  E(RHF) =  -535.640909949     A.U. after    7 cycles
 E2 =    -0.4817911925D+00 EUMP2 =    -0.53612270114184D+03
 SCF Done:  E(RHF) =  -535.638392199     A.U. after   10 cycles
 E2 =    -0.4816250957D+00 EUMP2 =    -0.53612001729452D+03
 SCF Done:  E(RHF) =  -535.638516508     A.U. after    7 cycles
 E2 =    -0.4815061180D+00 EUMP2 =    -0.53612002262627D+03
 SCF Done:  E(RHF) =  -535.635929565     A.U. after   10 cycles
 E2 =    -0.4813718127D+00 EUMP2 =    -0.53611730137781D+03
 SCF Done:  E(RHF) =  -535.636030819     A.U. after    7 cycles
 E2 =    -0.4812743976D+00 EUMP2 =    -0.53611730521682D+03
    -- Stationary point found.
 SCF Done:  E(RHF) =  -535.633418621     A.U. after   10 cycles
 E2 =    -0.4811791593D+00 EUMP2 =    -0.53611459778015D+03
 SCF Done:  E(RHF) =  -535.633496614     A.U. after    7 cycles
 E2 =    -0.4811036257D+00 EUMP2 =    -0.53611460023943D+03
 Optimization completed.
    -- Stationary point found.

                         Standard orientation:
 ---------------------------------------------------------------------
 Center     Atomic      Atomic             Coordinates (Angstroms)
 Number     Number       Type             X           Y           Z
 ---------------------------------------------------------------------
      1          8           0       -1.957977    0.088026    0.081258
      2          1           0       -2.185721   -0.824871   -0.112483
      3         17           0        1.129247   -0.006210    0.007183
      4          1           0       -1.347662    0.226238   -0.659696
 ---------------------------------------------------------------------

 The electronic state is 1-A.
 Alpha  occ. eigenvalues -- -104.51169 -20.39835 -10.23585  -7.70192  -7.70189
 Alpha  occ. eigenvalues --   -7.70184  -1.18351  -0.74269  -0.52895  -0.42941
 Alpha  occ. eigenvalues --   -0.34231  -0.15997  -0.15842  -0.15603
 Alpha virt. eigenvalues --    0.13808   0.16763   0.25414   0.26996   0.28878
 Alpha virt. eigenvalues --    0.29619   0.29648   0.31276   0.33689   0.37264
 Alpha virt. eigenvalues --    0.39433   0.42297   0.43854   0.47639   0.51224

 Mulliken charges:
               1
     1  O   -0.441700
     2  H    0.183477
     3  Cl  -0.970990
     4  H    0.229213
 Sum of Mulliken charges =  -1.00000

 Dipole moment (field-independent basis, Debye):
    X=             -4.0775    Y=             -1.1069    Z=             -1.0979  Tot=              4.3654
 Quadrupole moment (field-independent basis, Debye-Ang):
   XX=            -35.0475   YY=            -23.3089   ZZ=            -24.1645
   XY=              3.3197   XZ=              1.8307   YZ=             -0.1497

 Normal termination of Gaussian 16 at Tue Oct 19 15:24:54 2021.
