 Gaussian 16, Revision B.01,
 Gaussian 16:  ES64L-G16RevB.01 20-Dec-2017

 ----------------------------------------------------
 #p pop=NBO SP NoSymm mp2/aug-cc-pvtz density=current
 ----------------------------------------------------

 -----
 title
 -----
 Symbolic Z-matrix:
 Charge = -1 Multiplicity = 1

                          Input orientation:
 ---------------------------------------------------------------------
 Center     Atomic      Atomic             Coordinates (Angstroms)
 Number     Number       Type             X           Y           Z
 ---------------------------------------------------------------------
      1          8           0        0.000000    0.000000    0.000000
      2          1           0        0.960616    0.000000    0.000000
      3         17           0       -0.627430   -3.025169    0.000000
      4          1           0       -0.162399   -0.783009    0.559937
 ---------------------------------------------------------------------

 SCF Done:  E(RHF) =  -535.640910149     A.U. after   11 cycles
 E2 =    -0.4817909913D+00 EUMP2 =    -0.53612270113995D+03

 Alpha  occ. eigenvalues -- -104.51890 -20.39048 -10.24317  -7.70926  -7.70921
 Alpha  occ. eigenvalues --   -7.70917  -1.17412  -0.75124  -0.52551  -0.41980
 Alpha  occ. eigenvalues --   -0.33528  -0.16859  -0.16589  -0.16422
 Alpha virt. eigenvalues --    0.13812   0.17469   0.25598   0.26831   0.28754
 Alpha virt. eigenvalues --    0.29032   0.29673   0.31071   0.34550   0.38475
 Alpha virt. eigenvalues --    0.40167   0.42334   0.43750   0.48117   0.52309

 Mulliken charges:
               1
     1  O   -0.469775
     2  H    0.176991
     3  Cl  -0.948378
     4  H    0.241162
 Sum of Mulliken charges =  -1.00000

 Dipole moment (field-independent basis, Debye):
    X=              3.8776    Y=             12.3311    Z=              0.5262  Tot=             12.9371
 Quadrupole moment (field-independent basis, Debye-Ang):
   XX=            -24.4459   YY=            -65.9507   ZZ=            -24.5032
   XY=             -8.0720   XZ=             -0.2066   YZ=             -0.4407

 Summary of Natural Population Analysis:

                                       Natural Population
                Natural  -----------------------------------------------
    Atom  No    Charge         Core      Valence    Rydberg      Total
 -----------------------------------------------------------------------
      O    1   -0.96199      1.99967     6.85392    0.10839     8.96199
      H    2    0.44322      0.00000     0.54989    0.00689     0.55678
     Cl    3   -0.97216     10.00008     7.81895    0.15313    17.97216
      H    4    0.49093      0.00000     0.48978    0.01928     0.50907
 =======================================================================
   * Total *   -1.00000     11.99976    15.71255    0.28770    28.00000

 Normal termination of Gaussian 16 at Tue Oct 19 16:02:00 2021.
