 Gaussian 16, Revision B.01,
 Gaussian 16:  ES64L-G16RevB.01 20-Dec-2017

 ----------------------------------------------------
 #p pop=NBO SP NoSymm mp2/aug-cc-pvtz density=current
 ----------------------------------------------------

 -----
 title
 -----
 Symbolic Z-matrix:
 Charge = -1 Multiplicity = 1

                          Input orientation:
 ---------------------------------------------------------------------
 Center     Atomic      Atomic             Coordinates (Angstroms)
 Number     Number       Type             X           Y           Z
 ---------------------------------------------------------------------
      1          8           0        0.000000    0.000000    0.000000
      2          1           0        0.960616    0.000000    0.000000
      3         17           0       -0.627430   -3.025169    0.000000
      4          1           0       -0.201579   -0.971916    0.000000
 ---------------------------------------------------------------------

 SCF Done:  E(RHF) =  -535.650426956     A.U. after   11 cycles
 E2 =    -0.4835660902D+00 EUMP2 =    -0.53613399304615D+03

 Alpha  occ. eigenvalues -- -104.53003 -20.37743 -10.25450  -7.72060  -7.72054
 Alpha  occ. eigenvalues --   -7.72053  -1.15801  -0.76530  -0.51570  -0.40560
 Alpha  occ. eigenvalues --   -0.32256  -0.18219  -0.17752  -0.17706
 Alpha virt. eigenvalues --    0.13868   0.18208   0.25650   0.26704   0.27572
 Alpha virt. eigenvalues --    0.28774   0.30504   0.31084   0.35228   0.39681
 Alpha virt. eigenvalues --    0.41295   0.41907   0.43417   0.49909   0.55272

 Mulliken charges:
               1
     1  O   -0.547188
     2  H    0.165441
     3  Cl  -0.912136
     4  H    0.293882
 Sum of Mulliken charges =  -1.00000

 Dipole moment (field-independent basis, Debye):
    X=              3.7045    Y=             11.5112    Z=             -0.0000  Tot=             12.0926
 Quadrupole moment (field-independent basis, Debye-Ang):
   XX=            -24.1201   YY=            -62.8270   ZZ=            -25.1264
   XY=             -7.4644   XZ=              0.0000   YZ=              0.0000

 Summary of Natural Population Analysis:

                                       Natural Population
                Natural  -----------------------------------------------
    Atom  No    Charge         Core      Valence    Rydberg      Total
 -----------------------------------------------------------------------
      O    1   -0.99517      1.99967     6.89273    0.10276     8.99517
      H    2    0.43622      0.00000     0.55140    0.01238     0.56378
     Cl    3   -0.93278     10.00008     7.78469    0.14801    17.93278
      H    4    0.49173      0.00000     0.48675    0.02152     0.50827
 =======================================================================
   * Total *   -1.00000     11.99976    15.71557    0.28467    28.00000

 Normal termination of Gaussian 16 at Tue Oct 19 16:00:51 2021.
