 Gaussian 16, Revision B.01,
 Gaussian 16:  ES64L-G16RevB.01 20-Dec-2017

 ----------------------------------------------------
 #p pop=NBO SP NoSymm mp2/aug-cc-pvtz density=current
 ----------------------------------------------------

 -----
 title
 -----
 Symbolic Z-matrix:
 Charge = -1 Multiplicity = 1

                          Input orientation:
 ---------------------------------------------------------------------
 Center     Atomic      Atomic             Coordinates (Angstroms)
 Number     Number       Type             X           Y           Z
 ---------------------------------------------------------------------
      1          8           0        0.000000    0.000000    0.000000
      2          1           0        0.960616    0.000000    0.000000
      3         17           0       -0.627430   -3.025169    0.000000
      4          1           0       -0.139512   -0.672660    0.686975
 ---------------------------------------------------------------------

 SCF Done:  E(RHF) =  -535.636030755     A.U. after   11 cycles
 E2 =    -0.4812744611D+00 EUMP2 =    -0.53611730521661D+03

 Alpha  occ. eigenvalues -- -104.51404 -20.39583 -10.23824  -7.70431  -7.70427
 Alpha  occ. eigenvalues --   -7.70423  -1.18053  -0.74543  -0.52814  -0.42622
 Alpha  occ. eigenvalues --   -0.34012  -0.16275  -0.16085  -0.15870
 Alpha virt. eigenvalues --    0.13805   0.17010   0.25475   0.26948   0.28843
 Alpha virt. eigenvalues --    0.29439   0.29614   0.31225   0.33993   0.37631
 Alpha virt. eigenvalues --    0.39670   0.42313   0.43838   0.47846   0.51526

 Mulliken charges:
               1
     1  O   -0.449286
     2  H    0.181600
     3  Cl  -0.964056
     4  H    0.231742
 Sum of Mulliken charges =  -1.00000

 Dipole moment (field-independent basis, Debye):
    X=              3.9527    Y=             12.7051    Z=              0.6935  Tot=             13.3238
 Quadrupole moment (field-independent basis, Debye-Ang):
   XX=            -24.5894   YY=            -67.3084   ZZ=            -24.1615
   XY=             -8.3423   XZ=             -0.2420   YZ=             -0.4750

 Summary of Natural Population Analysis:

                                       Natural Population
                Natural  -----------------------------------------------
    Atom  No    Charge         Core      Valence    Rydberg      Total
 -----------------------------------------------------------------------
      O    1   -0.94524      1.99968     6.83657    0.10899     8.94524
      H    2    0.44351      0.00000     0.54967    0.00682     0.55649
     Cl    3   -0.98299     10.00008     7.82763    0.15528    17.98299
      H    4    0.48471      0.00000     0.49765    0.01764     0.51529
 =======================================================================
   * Total *   -1.00000     11.99976    15.71152    0.28873    28.00000

 Normal termination of Gaussian 16 at Tue Oct 19 16:02:19 2021.
