 Gaussian 16, Revision B.01,
 Gaussian 16:  ES64L-G16RevB.01 20-Dec-2017

 ----------------------------------------------------
 #p pop=NBO SP NoSymm mp2/aug-cc-pvtz density=current
 ----------------------------------------------------

 -----
 title
 -----
 Symbolic Z-matrix:
 Charge = -1 Multiplicity = 1

                          Input orientation:
 ---------------------------------------------------------------------
 Center     Atomic      Atomic             Coordinates (Angstroms)
 Number     Number       Type             X           Y           Z
 ---------------------------------------------------------------------
      1          8           0        0.000000    0.000000    0.000000
      2          1           0        0.960616    0.000000    0.000000
      3         17           0       -0.627430   -3.025169    0.000000
      4          1           0       -0.198186   -0.955559    0.172077
 ---------------------------------------------------------------------

 SCF Done:  E(RHF) =  -535.649512775     A.U. after   11 cycles
 E2 =    -0.4833738297D+00 EUMP2 =    -0.53613288660487D+03

 Alpha  occ. eigenvalues -- -104.52889 -20.37884 -10.25334  -7.71943  -7.71937
 Alpha  occ. eigenvalues --   -7.71936  -1.15966  -0.76380  -0.51680  -0.40700
 Alpha  occ. eigenvalues --   -0.32395  -0.18079  -0.17632  -0.17571
 Alpha virt. eigenvalues --    0.13862   0.18163   0.25666   0.26690   0.27756
 Alpha virt. eigenvalues --    0.28799   0.30519   0.30773   0.35239   0.39799
 Alpha virt. eigenvalues --    0.41192   0.42097   0.43371   0.49369   0.54870

 Mulliken charges:
               1
     1  O   -0.538071
     2  H    0.166524
     3  Cl  -0.914975
     4  H    0.286521
 Sum of Mulliken charges =  -1.00000

 Dipole moment (field-independent basis, Debye):
    X=              3.7223    Y=             11.5939    Z=              0.1389  Tot=             12.1775
 Quadrupole moment (field-independent basis, Debye-Ang):
   XX=            -24.1539   YY=            -63.1469   ZZ=            -25.0715
   XY=             -7.5260   XZ=             -0.0638   YZ=             -0.1447

 Summary of Natural Population Analysis:

                                       Natural Population
                Natural  -----------------------------------------------
    Atom  No    Charge         Core      Valence    Rydberg      Total
 -----------------------------------------------------------------------
      O    1   -0.99160      1.99967     6.88923    0.10270     8.99160
      H    2    0.43645      0.00000     0.55122    0.01232     0.56355
     Cl    3   -0.93761     10.00009     7.78902    0.14850    17.93761
      H    4    0.49276      0.00000     0.48599    0.02126     0.50724
 =======================================================================
   * Total *   -1.00000     11.99976    15.71546    0.28479    28.00000

 Normal termination of Gaussian 16 at Tue Oct 19 16:01:12 2021.
