 Gaussian 16, Revision B.01,
 Gaussian 16:  ES64L-G16RevB.01 20-Dec-2017

 ----------------------------------------------------
 #p pop=NBO SP NoSymm mp2/aug-cc-pvtz density=current
 ----------------------------------------------------

 -----
 title
 -----
 Symbolic Z-matrix:
 Charge = -1 Multiplicity = 1

                          Input orientation:
 ---------------------------------------------------------------------
 Center     Atomic      Atomic             Coordinates (Angstroms)
 Number     Number       Type             X           Y           Z
 ---------------------------------------------------------------------
      1          8           0        0.000000    0.000000    0.000000
      2          1           0        0.960616    0.000000    0.000000
      3         17           0       -0.627430   -3.025169    0.000000
      4          1           0       -0.126601   -0.610411    0.742941
 ---------------------------------------------------------------------

 SCF Done:  E(RHF) =  -535.633496823     A.U. after   11 cycles
 E2 =    -0.4811034152D+00 EUMP2 =    -0.53611460023846D+03

 Alpha  occ. eigenvalues -- -104.51169 -20.39835 -10.23585  -7.70192  -7.70189
 Alpha  occ. eigenvalues --   -7.70184  -1.18351  -0.74269  -0.52895  -0.42941
 Alpha  occ. eigenvalues --   -0.34231  -0.15997  -0.15842  -0.15603
 Alpha virt. eigenvalues --    0.13808   0.16763   0.25414   0.26996   0.28878
 Alpha virt. eigenvalues --    0.29619   0.29648   0.31276   0.33689   0.37264
 Alpha virt. eigenvalues --    0.39433   0.42297   0.43854   0.47639   0.51224

 Mulliken charges:
               1
     1  O   -0.441697
     2  H    0.183477
     3  Cl  -0.970990
     4  H    0.229210
 Sum of Mulliken charges =  -1.00000

 Dipole moment (field-independent basis, Debye):
    X=              3.9892    Y=             12.8926    Z=              0.7757  Tot=             13.5179
 Quadrupole moment (field-independent basis, Debye-Ang):
   XX=            -24.6583   YY=            -67.9551   ZZ=            -23.9841
   XY=             -8.4731   XZ=             -0.2520   YZ=             -0.4616

 Summary of Natural Population Analysis:

                                       Natural Population
                Natural  -----------------------------------------------
    Atom  No    Charge         Core      Valence    Rydberg      Total
 -----------------------------------------------------------------------
      O    1   -0.93724      1.99968     6.82811    0.10946     8.93724
      H    2    0.44355      0.00000     0.54967    0.00678     0.55645
     Cl    3   -0.98687     10.00008     7.83053    0.15626    17.98687
      H    4    0.48056      0.00000     0.50261    0.01682     0.51944
 =======================================================================
   * Total *   -1.00000     11.99976    15.71092    0.28932    28.00000

 Normal termination of Gaussian 16 at Tue Oct 19 16:02:29 2021.
