 Gaussian 16, Revision B.01,
 Gaussian 16:  ES64L-G16RevB.01 20-Dec-2017

 ----------------------------------------------------
 #p pop=NBO SP NoSymm mp2/aug-cc-pvtz density=current
 ----------------------------------------------------

 -----
 title
 -----
 Symbolic Z-matrix:
 Charge = -1 Multiplicity = 1

                          Input orientation:
 ---------------------------------------------------------------------
 Center     Atomic      Atomic             Coordinates (Angstroms)
 Number     Number       Type             X           Y           Z
 ---------------------------------------------------------------------
      1          8           0        0.000000    0.000000    0.000000
      2          1           0        0.960616    0.000000    0.000000
      3         17           0       -0.627430   -3.025169    0.000000
      4          1           0       -0.193863   -0.934713    0.255786
 ---------------------------------------------------------------------

 SCF Done:  E(RHF) =  -535.648446119     A.U. after   11 cycles
 E2 =    -0.4831112896D+00 EUMP2 =    -0.53613155740860D+03

 Alpha  occ. eigenvalues -- -104.52749 -20.38051 -10.25191  -7.71801  -7.71795
 Alpha  occ. eigenvalues --   -7.71793  -1.16184  -0.76199  -0.51830  -0.40880
 Alpha  occ. eigenvalues --   -0.32566  -0.17909  -0.17486  -0.17408
 Alpha virt. eigenvalues --    0.13853   0.18095   0.25679   0.26688   0.27947
 Alpha virt. eigenvalues --    0.28822   0.30361   0.30699   0.35203   0.39782
 Alpha virt. eigenvalues --    0.41058   0.42275   0.43357   0.48940   0.54399

 Mulliken charges:
               1
     1  O   -0.526849
     2  H    0.167894
     3  Cl  -0.919167
     4  H    0.278121
 Sum of Mulliken charges =  -1.00000

 Dipole moment (field-independent basis, Debye):
    X=              3.7443    Y=             11.6957    Z=              0.2109  Tot=             12.2822
 Quadrupole moment (field-independent basis, Debye-Ang):
   XX=            -24.1939   YY=            -63.5371   ZZ=            -25.0035
   XY=             -7.6013   XZ=             -0.0953   YZ=             -0.2153

 Summary of Natural Population Analysis:

                                       Natural Population
                Natural  -----------------------------------------------
    Atom  No    Charge         Core      Valence    Rydberg      Total
 -----------------------------------------------------------------------
      O    1   -0.98702      1.99967     6.88472    0.10263     8.98702
      H    2    0.43672      0.00000     0.55102    0.01226     0.56328
     Cl    3   -0.94334     10.00009     7.79415    0.14911    17.94334
      H    4    0.49363      0.00000     0.48545    0.02092     0.50637
 =======================================================================
   * Total *   -1.00000     11.99976    15.71533    0.28491    28.00000

 Normal termination of Gaussian 16 at Tue Oct 19 16:01:22 2021.
