 Gaussian 16, Revision B.01,
 Gaussian 16:  ES64L-G16RevB.01 20-Dec-2017

 ----------------------------------------------------
 #p pop=NBO SP NoSymm mp2/aug-cc-pvtz density=current
 ----------------------------------------------------

 -----
 title
 -----
 Symbolic Z-matrix:
 Charge = -1 Multiplicity = 1

                          Input orientation:
 ---------------------------------------------------------------------
 Center     Atomic      Atomic             Coordinates (Angstroms)
 Number     Number       Type             X           Y           Z
 ---------------------------------------------------------------------
      1          8           0        0.000000    0.000000    0.000000
      2          1           0        0.960616    0.000000    0.000000
      3         17           0       -0.627430   -3.025169    0.000000
      4          1           0       -0.180789   -0.871679    0.415121
 ---------------------------------------------------------------------

 SCF Done:  E(RHF) =  -535.645205124     A.U. after   11 cycles
 E2 =    -0.4824620973D+00 EUMP2 =    -0.53612766722181D+03

 Alpha  occ. eigenvalues -- -104.52361 -20.38510 -10.24796  -7.71405  -7.71400
 Alpha  occ. eigenvalues --   -7.71397  -1.16754  -0.75705  -0.52191  -0.41373
 Alpha  occ. eigenvalues --   -0.33017  -0.17434  -0.17080  -0.16960
 Alpha virt. eigenvalues --    0.13830   0.17847   0.25675   0.26731   0.28401
 Alpha virt. eigenvalues --    0.28872   0.29904   0.30866   0.34974   0.39313
 Alpha virt. eigenvalues --    0.40658   0.42391   0.43539   0.48360   0.53309

 Mulliken charges:
               1
     1  O   -0.497795
     2  H    0.171992
     3  Cl  -0.932157
     4  H    0.257960
 Sum of Mulliken charges =  -1.00000

 Dipole moment (field-independent basis, Debye):
    X=              3.8048    Y=             11.9803    Z=              0.3633  Tot=             12.5752
 Quadrupole moment (field-independent basis, Debye-Ang):
   XX=            -24.3073   YY=            -64.6276   ZZ=            -24.7940
   XY=             -7.8127   XZ=             -0.1554   YZ=             -0.3450

 Summary of Natural Population Analysis:

                                       Natural Population
                Natural  -----------------------------------------------
    Atom  No    Charge         Core      Valence    Rydberg      Total
 -----------------------------------------------------------------------
      O    1   -0.97827      1.99967     6.87034    0.10827     8.97827
      H    2    0.44270      0.00000     0.55032    0.00698     0.55730
     Cl    3   -0.95789     10.00009     7.80683    0.15098    17.95789
      H    4    0.49347      0.00000     0.48580    0.02073     0.50653
 =======================================================================
   * Total *   -1.00000     11.99976    15.71330    0.28695    28.00000

 Normal termination of Gaussian 16 at Tue Oct 19 16:01:41 2021.
