 Gaussian 16, Revision B.01,
 Gaussian 16:  ES64L-G16RevB.01 20-Dec-2017

 ----------------------------------------------------
 #p pop=NBO SP NoSymm mp2/aug-cc-pvtz density=current
 ----------------------------------------------------

 -----
 title
 -----
 Symbolic Z-matrix:
 Charge = -1 Multiplicity = 1

                          Input orientation:
 ---------------------------------------------------------------------
 Center     Atomic      Atomic             Coordinates (Angstroms)
 Number     Number       Type             X           Y           Z
 ---------------------------------------------------------------------
      1          8           0        0.000000    0.000000    0.000000
      2          1           0        0.960616    0.000000    0.000000
      3         17           0       -0.627430   -3.025169    0.000000
      4          1           0       -0.151472   -0.730324    0.625857
 ---------------------------------------------------------------------

 SCF Done:  E(RHF) =  -535.638516696     A.U. after   11 cycles
 E2 =    -0.4815059292D+00 EUMP2 =    -0.53612002262525D+03

 Alpha  occ. eigenvalues -- -104.51646 -20.39319 -10.24069  -7.70677  -7.70673
 Alpha  occ. eigenvalues --   -7.70669  -1.17739  -0.74829  -0.52698  -0.42300
 Alpha  occ. eigenvalues --   -0.33777  -0.16564  -0.16335  -0.16144
 Alpha virt. eigenvalues --    0.13807   0.17247   0.25539   0.26891   0.28810
 Alpha virt. eigenvalues --    0.29226   0.29628   0.31156   0.34283   0.38038
 Alpha virt. eigenvalues --    0.39916   0.42322   0.43806   0.48001   0.51888

 Mulliken charges:
               1
     1  O   -0.458540
     2  H    0.179411
     3  Cl  -0.956458
     4  H    0.235588
 Sum of Mulliken charges =  -1.00000

 Dipole moment (field-independent basis, Debye):
    X=              3.9153    Y=             12.5171    Z=              0.6099  Tot=             13.1293
 Quadrupole moment (field-independent basis, Debye-Ang):
   XX=            -24.5180   YY=            -66.6352   ZZ=            -24.3364
   XY=             -8.2076   XZ=             -0.2267   YZ=             -0.4672

 Summary of Natural Population Analysis:

                                       Natural Population
                Natural  -----------------------------------------------
    Atom  No    Charge         Core      Valence    Rydberg      Total
 -----------------------------------------------------------------------
      O    1   -0.95354      1.99968     6.84523    0.10863     8.95354
      H    2    0.44340      0.00000     0.54975    0.00685     0.55660
     Cl    3   -0.97809     10.00008     7.82378    0.15422    17.97809
      H    4    0.48823      0.00000     0.49330    0.01847     0.51177
 =======================================================================
   * Total *   -1.00000     11.99976    15.71206    0.28818    28.00000

 Normal termination of Gaussian 16 at Tue Oct 19 16:02:09 2021.
