 Gaussian 16, Revision B.01,
 Gaussian 16:  ES64L-G16RevB.01 20-Dec-2017

 ----------------------------------------------------
 #p pop=NBO SP NoSymm mp2/aug-cc-pvtz density=current
 ----------------------------------------------------

 -----
 title
 -----
 Symbolic Z-matrix:
 Charge = -1 Multiplicity = 1

                          Input orientation:
 ---------------------------------------------------------------------
 Center     Atomic      Atomic             Coordinates (Angstroms)
 Number     Number       Type             X           Y           Z
 ---------------------------------------------------------------------
      1          8           0        0.000000    0.000000    0.000000
      2          1           0        0.960616    0.000000    0.000000
      3         17           0       -0.627430   -3.025169    0.000000
      4          1           0       -0.188046   -0.906668    0.337023
 ---------------------------------------------------------------------

 SCF Done:  E(RHF) =  -535.646987519     A.U. after   11 cycles
 E2 =    -0.4828030357D+00 EUMP2 =    -0.53612979055448D+03

 Alpha  occ. eigenvalues -- -104.52570 -20.38264 -10.25009  -7.71618  -7.71613
 Alpha  occ. eigenvalues --   -7.71611  -1.16450  -0.75969  -0.52003  -0.41106
 Alpha  occ. eigenvalues --   -0.32777  -0.17690  -0.17299  -0.17201
 Alpha virt. eigenvalues --    0.13842   0.17989   0.25684   0.26701   0.28170
 Alpha virt. eigenvalues --    0.28846   0.30110   0.30768   0.35116   0.39616
 Alpha virt. eigenvalues --    0.40876   0.42384   0.43416   0.48590   0.53859

 Mulliken charges:
               1
     1  O   -0.512942
     2  H    0.169750
     3  Cl  -0.924991
     4  H    0.268183
 Sum of Mulliken charges =  -1.00000

 Dipole moment (field-independent basis, Debye):
    X=              3.7722    Y=             11.8264    Z=              0.2857  Tot=             12.4167
 Quadrupole moment (field-independent basis, Debye-Ang):
   XX=            -24.2461   YY=            -64.0390   ZZ=            -24.9104
   XY=             -7.6984   XZ=             -0.1260   YZ=             -0.2828

 Summary of Natural Population Analysis:

                                       Natural Population
                Natural  -----------------------------------------------
    Atom  No    Charge         Core      Valence    Rydberg      Total
 -----------------------------------------------------------------------
      O    1   -0.98110      1.99967     6.87886    0.10257     8.98110
      H    2    0.43705      0.00000     0.55077    0.01218     0.56295
     Cl    3   -0.95026     10.00009     7.80028    0.14990    17.95026
      H    4    0.49431      0.00000     0.48524    0.02044     0.50569
 =======================================================================
   * Total *   -1.00000     11.99976    15.71514    0.28510    28.00000

 Normal termination of Gaussian 16 at Tue Oct 19 16:01:31 2021.
