 Gaussian 16, Revision B.01,
 Gaussian 16:  ES64L-G16RevB.01 20-Dec-2017

 ----------------------------------------------------
 #p pop=NBO SP NoSymm mp2/aug-cc-pvtz density=current
 ----------------------------------------------------

 -----
 title
 -----
 Symbolic Z-matrix:
 Charge = -1 Multiplicity = 1

                          Input orientation:
 ---------------------------------------------------------------------
 Center     Atomic      Atomic             Coordinates (Angstroms)
 Number     Number       Type             X           Y           Z
 ---------------------------------------------------------------------
      1          8           0        0.000000    0.000000    0.000000
      2          1           0        0.960616    0.000000    0.000000
      3         17           0       -0.627430   -3.025169    0.000000
      4          1           0       -0.200741   -0.967876    0.086480
 ---------------------------------------------------------------------

 SCF Done:  E(RHF) =  -535.650192081     A.U. after   11 cycles
 E2 =    -0.4835206718D+00 EUMP2 =    -0.53613371275285D+03

 Alpha  occ. eigenvalues -- -104.52975 -20.37779 -10.25421  -7.72031  -7.72024
 Alpha  occ. eigenvalues --   -7.72023  -1.15841  -0.76492  -0.51596  -0.40595
 Alpha  occ. eigenvalues --   -0.32291  -0.18184  -0.17722  -0.17672
 Alpha virt. eigenvalues --    0.13867   0.18198   0.25655   0.26699   0.27621
 Alpha virt. eigenvalues --    0.28781   0.30514   0.30988   0.35236   0.39727
 Alpha virt. eigenvalues --    0.41271   0.41956   0.43403   0.49751   0.55182

 Mulliken charges:
               1
     1  O   -0.544917
     2  H    0.165710
     3  Cl  -0.912776
     4  H    0.291982
 Sum of Mulliken charges =  -1.00000

 Dipole moment (field-independent basis, Debye):
    X=              3.7089    Y=             11.5318    Z=              0.0689  Tot=             12.1138
 Quadrupole moment (field-independent basis, Debye-Ang):
   XX=            -24.1287   YY=            -62.9072   ZZ=            -25.1126
   XY=             -7.4798   XZ=             -0.0319   YZ=             -0.0726

 Summary of Natural Population Analysis:

                                       Natural Population
                Natural  -----------------------------------------------
    Atom  No    Charge         Core      Valence    Rydberg      Total
 -----------------------------------------------------------------------
      O    1   -0.99429      1.99967     6.89187    0.10275     8.99429
      H    2    0.43628      0.00000     0.55136    0.01236     0.56372
     Cl    3   -0.93400     10.00009     7.78578    0.14813    17.93400
      H    4    0.49202      0.00000     0.48653    0.02145     0.50798
 =======================================================================
   * Total *   -1.00000     11.99976    15.71554    0.28470    28.00000

 Normal termination of Gaussian 16 at Tue Oct 19 16:01:01 2021.
