 Gaussian 16, Revision B.01,
 Gaussian 16:  ES64L-G16RevB.01 20-Dec-2017

 -------------------------------------------------
 #p opt=(z-matrix) mp2/aug-cc-pvtz density=current
 -------------------------------------------------

 -----
 title
 -----
 Symbolic Z-matrix:
 Charge = -1 Multiplicity = 1

 SCF Done:  E(RHF) =  -535.651159891     A.U. after   11 cycles
 E2 =    -0.4820011677D+00 EUMP2 =    -0.53613316105833D+03
 SCF Done:  E(RHF) =  -535.650918830     A.U. after    9 cycles
 E2 =    -0.4830153912D+00 EUMP2 =    -0.53613393422118D+03
 SCF Done:  E(RHF) =  -535.650645110     A.U. after    8 cycles
 E2 =    -0.4833349659D+00 EUMP2 =    -0.53613398007606D+03
 SCF Done:  E(RHF) =  -535.650549740     A.U. after    7 cycles
 E2 =    -0.4834390435D+00 EUMP2 =    -0.53613398878341D+03
 SCF Done:  E(RHF) =  -535.650445409     A.U. after    7 cycles
 E2 =    -0.4835474942D+00 EUMP2 =    -0.53613399290350D+03
 SCF Done:  E(RHF) =  -535.650426857     A.U. after    6 cycles
 E2 =    -0.4835661899D+00 EUMP2 =    -0.53613399304711D+03
 Optimization completed.
    -- Stationary point found.

                         Standard orientation:
 ---------------------------------------------------------------------
 Center     Atomic      Atomic             Coordinates (Angstroms)
 Number     Number       Type             X           Y           Z
 ---------------------------------------------------------------------
      1          8           0        0.034837    1.974810    0.000000
      2          1           0       -0.905762    2.169893    0.000000
      3         17           0        0.034837   -1.114740   -0.000000
      4          1           0        0.034837    0.982208    0.000000
 ---------------------------------------------------------------------

 The electronic state is 1-A'.
 Alpha  occ. eigenvalues -- -104.53003 -20.37743 -10.25450  -7.72060  -7.72054
 Alpha  occ. eigenvalues --   -7.72053  -1.15800  -0.76530  -0.51570  -0.40560
 Alpha  occ. eigenvalues --   -0.32256  -0.18219  -0.17752  -0.17706
 Alpha virt. eigenvalues --    0.13868   0.18208   0.25650   0.26704   0.27572
 Alpha virt. eigenvalues --    0.28774   0.30504   0.31084   0.35228   0.39681
 Alpha virt. eigenvalues --    0.41295   0.41907   0.43417   0.49909   0.55272

 Mulliken charges:
               1
     1  O   -0.547189
     2  H    0.165441
     3  Cl  -0.912135
     4  H    0.293883
 Sum of Mulliken charges =  -1.00000

 Dipole moment (field-independent basis, Debye):
    X=             -1.4569    Y=              2.5382    Z=              0.0000  Tot=              2.9266
 Quadrupole moment (field-independent basis, Debye-Ang):
   XX=            -22.8436   YY=            -35.4424   ZZ=            -25.1264
   XY=             -3.3064   XZ=             -0.0000   YZ=             -0.0000

 Normal termination of Gaussian 16 at Wed Oct  6 16:22:19 2021.
