 Gaussian 16, Revision B.01,
 Gaussian 16:  ES64L-G16RevB.01 20-Dec-2017

 ----------------------------------------------------
 #p pop=NBO SP NoSymm mp2/aug-cc-pvtz density=current
 ----------------------------------------------------

 -----
 title
 -----
 Symbolic Z-matrix:
 Charge = -1 Multiplicity = 1

                          Input orientation:
 ---------------------------------------------------------------------
 Center     Atomic      Atomic             Coordinates (Angstroms)
 Number     Number       Type             X           Y           Z
 ---------------------------------------------------------------------
      1          8           0        0.000000    0.000000    0.000000
      2          1           0        0.960616    0.000000    0.000000
      3         17           0       -0.627430   -3.025169    0.000000
      4          1           0       -0.172203   -0.830282    0.489565
 ---------------------------------------------------------------------

 SCF Done:  E(RHF) =  -535.643159213     A.U. after   11 cycles
 E2 =    -0.4821161103D+00 EUMP2 =    -0.53612527532281D+03

 Alpha  occ. eigenvalues -- -104.52131 -20.38775 -10.24562  -7.71171  -7.71166
 Alpha  occ. eigenvalues --   -7.71163  -1.17080  -0.75419  -0.52378  -0.41668
 Alpha  occ. eigenvalues --   -0.33272  -0.17153  -0.16840  -0.16697
 Alpha virt. eigenvalues --    0.13820   0.17671   0.25646   0.26775   0.28615
 Alpha virt. eigenvalues --    0.28916   0.29760   0.30971   0.34783   0.38915
 Alpha virt. eigenvalues --    0.40418   0.42360   0.43661   0.48220   0.52786

 Mulliken charges:
               1
     1  O   -0.483020
     2  H    0.174465
     3  Cl  -0.940131
     4  H    0.248686
 Sum of Mulliken charges =  -1.00000

 Dipole moment (field-independent basis, Debye):
    X=              3.8404    Y=             12.1505    Z=              0.4437  Tot=             12.7507
 Quadrupole moment (field-independent basis, Debye-Ang):
   XX=            -24.3748   YY=            -65.2738   ZZ=            -24.6572
   XY=             -7.9389   XZ=             -0.1826   YZ=             -0.3988

 Summary of Natural Population Analysis:

                                       Natural Population
                Natural  -----------------------------------------------
    Atom  No    Charge         Core      Valence    Rydberg      Total
 -----------------------------------------------------------------------
      O    1   -0.97034      1.99967     6.86239    0.10828     8.97034
      H    2    0.44298      0.00000     0.55009    0.00694     0.55702
     Cl    3   -0.96532     10.00008     7.81321    0.15203    17.96532
      H    4    0.49268      0.00000     0.48727    0.02005     0.50732
 =======================================================================
   * Total *   -1.00000     11.99976    15.71296    0.28728    28.00000

 Normal termination of Gaussian 16 at Tue Oct 19 16:01:50 2021.
