 Gaussian 16, Revision B.01,
 Gaussian 16:  ES64L-G16RevB.01 20-Dec-2017

 -----------------------------------
 #p opt=z-matrix mp2/gen Pseudo=read
 -----------------------------------

 -----
 title
 -----
 Symbolic Z-matrix:
 Charge = -1 Multiplicity = 1

 SCF Done:  E(RHF) =  -370.817737964     A.U. after   12 cycles
 E2 =    -0.4965619293D+00 EUMP2 =    -0.37131429989366D+03
 Optimization completed.
    -- Stationary point found.
 SCF Done:  E(RHF) =  -370.816385272     A.U. after    9 cycles
 E2 =    -0.4976103529D+00 EUMP2 =    -0.37131399562442D+03
 Optimization completed.
 SCF Done:  E(RHF) =  -370.814471987     A.U. after    9 cycles
 E2 =    -0.4986707531D+00 EUMP2 =    -0.37131314274001D+03
 SCF Done:  E(RHF) =  -370.812079467     A.U. after    9 cycles
 E2 =    -0.4997423648D+00 EUMP2 =    -0.37131182183216D+03
 SCF Done:  E(RHF) =  -370.809280178     A.U. after    9 cycles
 E2 =    -0.5008244629D+00 EUMP2 =    -0.37131010464068D+03
 SCF Done:  E(RHF) =  -370.806138793     A.U. after    9 cycles
 E2 =    -0.5019163223D+00 EUMP2 =    -0.37130805511490D+03
 SCF Done:  E(RHF) =  -370.802713153     A.U. after    9 cycles
 E2 =    -0.5030171700D+00 EUMP2 =    -0.37130573032317D+03
 SCF Done:  E(RHF) =  -370.799055097     A.U. after    9 cycles
 E2 =    -0.5041261316D+00 EUMP2 =    -0.37130318122904D+03
 SCF Done:  E(RHF) =  -370.795211176     A.U. after    9 cycles
 E2 =    -0.5052421765D+00 EUMP2 =    -0.37130045335270D+03
 SCF Done:  E(RHF) =  -370.791223269     A.U. after    9 cycles
 E2 =    -0.5063640641D+00 EUMP2 =    -0.37129758733297D+03
 E2 =    -0.5074902925D+00 EUMP2 =    -0.37129461940464D+03
 E2 =    -0.5086190523D+00 EUMP2 =    -0.37129158180410D+03
 E2 =    -0.5097481864D+00 EUMP2 =    -0.37128850311432D+03
 E2 =    -0.5108751626D+00 EUMP2 =    -0.37128540856492D+03
 E2 =    -0.5119970288D+00 EUMP2 =    -0.37128232026515D+03
 E2 =    -0.5131104306D+00 EUMP2 =    -0.37127925745609D+03
 E2 =    -0.5142115896D+00 EUMP2 =    -0.37127623668740D+03
 E2 =    -0.5152963221D+00 EUMP2 =    -0.37127327200174D+03
 E2 =    -0.5163600671D+00 EUMP2 =    -0.37127037510289D+03
 E2 =    -0.5173979325D+00 EUMP2 =    -0.37126755551803D+03
 E2 =    -0.5259979894D+00 EUMP2 =    -0.37124096525928D+03
 E2 =    -0.5262786121D+00 EUMP2 =    -0.37123932610546D+03
 E2 =    -0.5264865991D+00 EUMP2 =    -0.37123775980011D+03
 E2 =    -0.5266241878D+00 EUMP2 =    -0.37123626155993D+03
 E2 =    -0.5266945192D+00 EUMP2 =    -0.37123482630205D+03
 E2 =    -0.5267015532D+00 EUMP2 =    -0.37123344858595D+03
 E2 =    -0.5266499585D+00 EUMP2 =    -0.37123212253329D+03
 E2 =    -0.5265449853D+00 EUMP2 =    -0.37123084173074D+03
 E2 =    -0.5263923251D+00 EUMP2 =    -0.37122959912202D+03
 E2 =    -0.5261979664D+00 EUMP2 =    -0.37122838689500D+03
 SCF Done:  E(RHF) =  -370.701228319     A.U. after   10 cycles
 E2 =    -0.5259680510D+00 EUMP2 =    -0.37122719637008D+03
 SCF Done:  E(RHF) =  -370.700309158     A.U. after   10 cycles
 E2 =    -0.5257087372D+00 EUMP2 =    -0.37122601789491D+03
 SCF Done:  E(RHF) =  -370.699414673     A.U. after   10 cycles
 E2 =    -0.5254260770D+00 EUMP2 =    -0.37122484074985D+03
 SCF Done:  E(RHF) =  -370.698527159     A.U. after   10 cycles
 E2 =    -0.5251259083D+00 EUMP2 =    -0.37122365306735D+03
 SCF Done:  E(RHF) =  -370.697627999     A.U. after   10 cycles
 E2 =    -0.5248137674D+00 EUMP2 =    -0.37122244176682D+03
 SCF Done:  E(RHF) =  -370.696697684     A.U. after   10 cycles
 E2 =    -0.5244948218D+00 EUMP2 =    -0.37122119250582D+03
 SCF Done:  E(RHF) =  -370.695715823     A.U. after   10 cycles
 E2 =    -0.5241738238D+00 EUMP2 =    -0.37121988964667D+03
 SCF Done:  E(RHF) =  -370.694661153     A.U. after   10 cycles
 E2 =    -0.5238550837D+00 EUMP2 =    -0.37121851623713D+03
 SCF Done:  E(RHF) =  -370.693511541     A.U. after   10 cycles
 E2 =    -0.5235424615D+00 EUMP2 =    -0.37121705400250D+03
    -- Stationary point found.
 SCF Done:  E(RHF) =  -370.692243973     A.U. after   10 cycles
 E2 =    -0.5232393737D+00 EUMP2 =    -0.37121548334676D+03
 Optimization completed.
    -- Stationary point found.

                         Standard orientation:
 ---------------------------------------------------------------------
 Center     Atomic      Atomic             Coordinates (Angstroms)
 Number     Number       Type             X           Y           Z
 ---------------------------------------------------------------------
      1          8           0       -2.985322   -0.086394   -0.000001
      2          1           0       -1.033396   -0.421899    0.000011
      3          1           0       -3.000094    0.874886    0.000004
      4         53           0        0.526718    0.004494   -0.000000
 ---------------------------------------------------------------------

 The electronic state is 1-A.
 Alpha  occ. eigenvalues --  -20.23446  -7.56077  -5.39009  -5.38438  -5.38436
 Alpha  occ. eigenvalues --   -2.11984  -2.11568  -2.11565  -2.10966  -2.10966
 Alpha  occ. eigenvalues --   -0.95589  -0.74354  -0.35690  -0.30018  -0.22282
 Alpha  occ. eigenvalues --   -0.22281  -0.16043  -0.15250
 Alpha virt. eigenvalues --    0.15621   0.16710   0.20524   0.22416   0.22986
 Alpha virt. eigenvalues --    0.27558   0.30793   0.32310   0.32900   0.33731
 Alpha virt. eigenvalues --    0.33841   0.36052   0.36595   0.38529   0.41209

 Mulliken charges:
               1
     1  O   -1.040797
     2  H    0.034875
     3  H    0.122073
     4  I   -0.116150
 Sum of Mulliken charges =  -1.00000

 Dipole moment (field-independent basis, Debye):
    X=             10.0588    Y=              1.1605    Z=              0.0000  Tot=             10.1255
 Quadrupole moment (field-independent basis, Debye-Ang):
   XX=            -75.0757   YY=            -37.0437   ZZ=            -39.6801
   XY=             -3.3330   XZ=             -0.0001   YZ=              0.0000

 Normal termination of Gaussian 16 at Fri Oct  8 16:45:36 2021.
