 Gaussian 16, Revision B.01,
 Gaussian 16:  ES64L-G16RevB.01 20-Dec-2017

 -----------------------------------------------
 # opt=(z-matrix,tight) mp2/aug-cc-pvtz freq=anh
 -----------------------------------------------

 -----
 title
 -----
 Symbolic Z-matrix:
 Charge = -1 Multiplicity = 1

 SCF Done:  E(RHF) =  -3107.47856270     A.U. after   13 cycles
 E2 =    -0.7042707537D+00 EUMP2 =    -0.31081828334584D+04
 SCF Done:  E(RHF) =  -3107.47854681     A.U. after    8 cycles
 E2 =    -0.7042868895D+00 EUMP2 =    -0.31081828336964D+04
 SCF Done:  E(RHF) =  -3107.47853000     A.U. after    9 cycles
 E2 =    -0.7043040292D+00 EUMP2 =    -0.31081828340299D+04
 SCF Done:  E(RHF) =  -3107.47852679     A.U. after    9 cycles
 E2 =    -0.7043074251D+00 EUMP2 =    -0.31081828342199D+04
 SCF Done:  E(RHF) =  -3107.47852737     A.U. after    9 cycles
 E2 =    -0.7043069329D+00 EUMP2 =    -0.31081828343025D+04
 SCF Done:  E(RHF) =  -3107.47852980     A.U. after    6 cycles
 E2 =    -0.7043045083D+00 EUMP2 =    -0.31081828343065D+04
 Optimization completed.
    -- Stationary point found.
 Normal termination of Gaussian 16 at Tue Jun 29 14:23:31 2021.

 ----------------------------------------------------------------------
 #N Geom=AllCheck Guess=TCheck SCRF=Check GenChk RMP2(FC)/Aug-CC-pVTZ F
 req
 ----------------------------------------------------------------------

 Structure from the checkpoint file:  "/gscratch/ilahie/abmccoy/hocl/br_hocl_tz.chk"
 -----
 title
 -----
 Charge = -1 Multiplicity = 1

                         Standard orientation:
 ---------------------------------------------------------------------
 Center     Atomic      Atomic             Coordinates (Angstroms)
 Number     Number       Type             X           Y           Z
 ---------------------------------------------------------------------
      1          8           0        1.391613    0.995464    0.000002
      2          1           0        0.452653    0.602994   -0.000020
      3         17           0        2.384488   -0.366164    0.000000
      4         35           0       -1.489196   -0.066912    0.000000
 ---------------------------------------------------------------------

 SCF Done:  E(RHF) =  -3107.47852980     A.U. after    1 cycles
 E2 =    -0.7043045070D+00 EUMP2 =    -0.31081828343052D+04
 E2 =    -0.7043045070D+00 EUMP2 =    -0.31081828343052D+04
 SCF Done:  E(RHF) =  -3107.47854149     A.U. after    9 cycles
 E2 =    -0.7042927722D+00 EUMP2 =    -0.31081828342635D+04
 E2 =    -0.7042927722D+00 EUMP2 =    -0.31081828342635D+04
 SCF Done:  E(RHF) =  -3107.47851793     A.U. after    9 cycles
 E2 =    -0.7043163245D+00 EUMP2 =    -0.31081828342516D+04
 E2 =    -0.7043163245D+00 EUMP2 =    -0.31081828342515D+04
 SCF Done:  E(RHF) =  -3107.47848921     A.U. after    9 cycles
 E2 =    -0.7043446965D+00 EUMP2 =    -0.31081828339049D+04
 E2 =    -0.7043446965D+00 EUMP2 =    -0.31081828339049D+04
 SCF Done:  E(RHF) =  -3107.47856932     A.U. after    9 cycles
 E2 =    -0.7042646278D+00 EUMP2 =    -0.31081828339433D+04
 E2 =    -0.7042646278D+00 EUMP2 =    -0.31081828339433D+04
 SCF Done:  E(RHF) =  -3107.47852348     A.U. after   10 cycles
 E2 =    -0.7043067739D+00 EUMP2 =    -0.31081828302514D+04
 E2 =    -0.7043067739D+00 EUMP2 =    -0.31081828302514D+04
 SCF Done:  E(RHF) =  -3107.47852333     A.U. after   10 cycles
 E2 =    -0.7043068924D+00 EUMP2 =    -0.31081828302175D+04
 E2 =    -0.7043068924D+00 EUMP2 =    -0.31081828302175D+04
 SCF Done:  E(RHF) =  -3107.47865834     A.U. after    9 cycles
 E2 =    -0.7041719026D+00 EUMP2 =    -0.31081828302463D+04
 E2 =    -0.7041719026D+00 EUMP2 =    -0.31081828302463D+04
 SCF Done:  E(RHF) =  -3107.47839327     A.U. after    9 cycles
 E2 =    -0.7044369393D+00 EUMP2 =    -0.31081828302133D+04
 E2 =    -0.7044369393D+00 EUMP2 =    -0.31081828302133D+04
 SCF Done:  E(RHF) =  -3107.47845692     A.U. after    9 cycles
 E2 =    -0.7043637033D+00 EUMP2 =    -0.31081828206198D+04
 E2 =    -0.7043637033D+00 EUMP2 =    -0.31081828206198D+04
 SCF Done:  E(RHF) =  -3107.47856813     A.U. after    9 cycles
 E2 =    -0.7042527316D+00 EUMP2 =    -0.31081828208628D+04
 E2 =    -0.7042527316D+00 EUMP2 =    -0.31081828208628D+04
 SCF Done:  E(RHF) =  -3107.47787346     A.U. after    9 cycles
 E2 =    -0.7049063142D+00 EUMP2 =    -0.31081827797754D+04
 E2 =    -0.7049063142D+00 EUMP2 =    -0.31081827797754D+04
 SCF Done:  E(RHF) =  -3107.47907488     A.U. after    9 cycles
 E2 =    -0.7037015640D+00 EUMP2 =    -0.31081827764487D+04
 E2 =    -0.7037015640D+00 EUMP2 =    -0.31081827764487D+04

 Alpha  occ. eigenvalues -- -489.75589-104.73234 -64.89626 -58.25076 -58.25072
 Alpha  occ. eigenvalues --  -58.25071 -20.46196 -10.45185  -9.56881  -7.91901
 Alpha  occ. eigenvalues --   -7.91638  -7.91628  -7.17662  -7.17606  -7.17605
 Alpha  occ. eigenvalues --   -2.91832  -2.91805  -2.91804  -2.91743  -2.91743
 Alpha  occ. eigenvalues --   -1.23025  -0.89713  -0.73151  -0.54108  -0.44289
 Alpha  occ. eigenvalues --   -0.43451  -0.30941  -0.28182  -0.18612  -0.17631
 Alpha  occ. eigenvalues --   -0.17629
 Alpha virt. eigenvalues --    0.15572   0.18101   0.21622   0.22705   0.24084
 Alpha virt. eigenvalues --    0.24501   0.24990   0.28640   0.30443   0.31855
 Alpha virt. eigenvalues --    0.32126   0.32518   0.35902   0.43574   0.43615

 Mulliken charges:
               1
     1  O   -0.485054
     2  H    0.294045
     3  Cl   0.041972
     4  Br  -0.850963
 Sum of Mulliken charges =  -1.00000

 Dipole moment (field-independent basis, Debye):
    X=              2.9640    Y=             -0.5570    Z=             -0.0000  Tot=              3.0159
 Quadrupole moment (field-independent basis, Debye-Ang):
   XX=            -57.5989   YY=            -43.7101   ZZ=            -43.1722
   XY=             -2.4785   XZ=             -0.0000   YZ=             -0.0000

  Exact polarizability:  76.680  -2.073  57.328  -0.000  -0.000  52.579
 Approx polarizability:  54.725  -3.125  52.988  -0.000   0.000  46.713

                      1                      2                      3
                      A                      A                      A
 Frequencies --     84.2140               237.5703               776.0884
 Red. masses --     22.8494                 8.3605                 1.0335
 Frc consts  --      0.0955                 0.2780                 0.3667
 IR Inten    --      3.3564                19.6025                20.4405

                      4                      5                      6
                      A                      A                      A
 Frequencies --    776.6285              1416.7756              2883.0807
 Red. masses --     16.7313                 1.0547                 1.0738
 Frc consts  --      5.9458                 1.2474                 5.2588
 IR Inten    --      8.2417                23.1970              2563.8455

 - Thermochemistry -
 -------------------
 Temperature   298.150 Kelvin.  Pressure   1.00000 Atm.
 Atom     1 has atomic number  8 and mass  15.99491

 Molecular mass:   130.88993 amu.
 Principal axes and moments of inertia in atomic units:
                           1         2         3
     Eigenvalues --    75.847941442.808501518.65644
           X            1.00000   0.00097  -0.00000
           Y           -0.00097   1.00000  -0.00000
           Z            0.00000   0.00000   1.00000
 This molecule is an asymmetric top.
 Rotational symmetry number  1.
 Rotational temperatures (Kelvin)      1.14194     0.06003     0.05703
 Rotational constants (GHZ):          23.79420     1.25085     1.18838
 Zero-point vibrational energy      36930.9 (Joules/Mol)
                                    8.82669 (Kcal/Mol)
 Warning -- explicit consideration of   2 degrees of freedom as
           vibrations may cause significant error
 Vibrational temperatures:    121.17   341.81  1116.62  1117.40  2038.42
          (Kelvin)           4148.11

 Zero-point correction=                           0.014066 (Hartree/Particle)
 Thermal correction to Energy=                    0.018346
 Thermal correction to Enthalpy=                  0.019290
 Thermal correction to Gibbs Free Energy=        -0.015496
 Sum of electronic and zero-point Energies=          -3108.168768
 Sum of electronic and thermal Energies=             -3108.164488
 Sum of electronic and thermal Enthalpies=           -3108.163544
 Sum of electronic and thermal Free Energies=        -3108.198330

                     E (Thermal)             CV                S
                      KCal/Mol        Cal/Mol-Kelvin    Cal/Mol-Kelvin
 Total                   11.512             11.186             73.214
 Electronic               0.000              0.000              0.000
 Translational            0.889              2.981             40.520
 Rotational               0.889              2.981             26.610
 Vibrational              9.735              5.224              6.083
 Vibration     1          0.601              1.960              3.790
 Vibration     2          0.656              1.783              1.821

 ## DEPERTURBED TRANSITIONS MOMENTS ##

 Electric dipole : Fundamental Bands
 ------------------------------------------------------------------------

 ## AFTER VARIATIONAL CORRECTION

 Electric dipole : Fundamental Bands
 ------------------------------------------------------------------------

                       ! Non-Optimized Parameters !
 Normal termination of Gaussian 16 at Tue Jun 29 15:21:39 2021.
