 Gaussian 09, Revision E.01,
 Gaussian 09:  ES64L-G09RevE.01 30-Nov-2015

 -------------------------------------------------
 #p opt=(z-matrix) mp2/aug-cc-pvtz density=current
 -------------------------------------------------

 -----
 title
 -----
 Symbolic Z-matrix:
 Charge = -1 Multiplicity = 1

 SCF Done:  E(RHF) =  -535.604575863     A.U. after   12 cycles
 E2 =    -0.4947729550D+00 EUMP2 =    -0.53609934881832D+03
 SCF Done:  E(RHF) =  -535.640277709     A.U. after   10 cycles
 E2 =    -0.4880012944D+00 EUMP2 =    -0.53612827900388D+03
 SCF Done:  E(RHF) =  -535.650607789     A.U. after   10 cycles
 E2 =    -0.4833710111D+00 EUMP2 =    -0.53613397879981D+03
 SCF Done:  E(RHF) =  -535.650727141     A.U. after    9 cycles
 E2 =    -0.4833974897D+00 EUMP2 =    -0.53613412463101D+03
 SCF Done:  E(RHF) =  -535.651340907     A.U. after    9 cycles
 E2 =    -0.4828810437D+00 EUMP2 =    -0.53613422195063D+03
 SCF Done:  E(RHF) =  -535.651321133     A.U. after    8 cycles
 E2 =    -0.4829584977D+00 EUMP2 =    -0.53613427963073D+03
 SCF Done:  E(RHF) =  -535.651542102     A.U. after    9 cycles
 E2 =    -0.4827873902D+00 EUMP2 =    -0.53613432949221D+03
 SCF Done:  E(RHF) =  -535.651349223     A.U. after    8 cycles
 E2 =    -0.4830009019D+00 EUMP2 =    -0.53613435012504D+03
 SCF Done:  E(RHF) =  -535.651130215     A.U. after    9 cycles
 E2 =    -0.4828479983D+00 EUMP2 =    -0.53613397821299D+03
 SCF Done:  E(RHF) =  -535.651179099     A.U. after    8 cycles
 E2 =    -0.4832070435D+00 EUMP2 =    -0.53613438614248D+03
 SCF Done:  E(RHF) =  -535.651208721     A.U. after    8 cycles
 E2 =    -0.4830643487D+00 EUMP2 =    -0.53613427306953D+03
 SCF Done:  E(RHF) =  -535.651050207     A.U. after    9 cycles
 E2 =    -0.4833146757D+00 EUMP2 =    -0.53613436488220D+03
 SCF Done:  E(RHF) =  -535.651758219     A.U. after    9 cycles
 E2 =    -0.4820687191D+00 EUMP2 =    -0.53613382693765D+03
 SCF Done:  E(RHF) =  -535.651205381     A.U. after    3 cycles
 E2 =    -0.4831810205D+00 EUMP2 =    -0.53613438640108D+03
 SCF Done:  E(RHF) =  -535.651168921     A.U. after    8 cycles
 E2 =    -0.4831966346D+00 EUMP2 =    -0.53613436555541D+03
 SCF Done:  E(RHF) =  -535.651115976     A.U. after    7 cycles
 E2 =    -0.4832746840D+00 EUMP2 =    -0.53613439066008D+03
 SCF Done:  E(RHF) =  -535.651111058     A.U. after    7 cycles
 E2 =    -0.4832801033D+00 EUMP2 =    -0.53613439116172D+03
 SCF Done:  E(RHF) =  -535.651111940     A.U. after    5 cycles
 E2 =    -0.4832792451D+00 EUMP2 =    -0.53613439118532D+03
 Optimization completed.
    -- Stationary point found.

                         Standard orientation:
 ---------------------------------------------------------------------
 Center     Atomic      Atomic             Coordinates (Angstroms)
 Number     Number       Type             X           Y           Z
 ---------------------------------------------------------------------
      1          8           0       -1.980691    0.094285    0.000007
      2          1           0       -2.062894   -0.862919   -0.000009
      3         17           0        1.111954   -0.004971    0.000001
      4          1           0       -0.994793    0.193146   -0.000064
 ---------------------------------------------------------------------

 The electronic state is 1-A.
 Alpha  occ. eigenvalues -- -104.53066 -20.37731 -10.25514  -7.72123  -7.72117
 Alpha  occ. eigenvalues --   -7.72116  -1.15866  -0.76569  -0.51382  -0.40819
 Alpha  occ. eigenvalues --   -0.32274  -0.18245  -0.17824  -0.17768
 Alpha virt. eigenvalues --    0.14135   0.18034   0.25588   0.26637   0.28019
 Alpha virt. eigenvalues --    0.28889   0.30461   0.31024   0.34742   0.39576
 Alpha virt. eigenvalues --    0.41742   0.41941   0.43520   0.49853   0.53347

 Mulliken charges:
               1
     1  O   -0.553126
     2  H    0.178263
     3  Cl  -0.915794
     4  H    0.290656
 Sum of Mulliken charges =  -1.00000

 Dipole moment (field-independent basis, Debye):
    X=             -2.3884    Y=             -1.2423    Z=             -0.0001  Tot=              2.6921
 Quadrupole moment (field-independent basis, Debye-Ang):
   XX=            -36.1805   YY=            -22.8348   ZZ=            -25.1342
   XY=              3.3819   XZ=              0.0001   YZ=             -0.0000

 Normal termination of Gaussian 09 at Tue Dec 21 10:22:54 2021.
