 Gaussian 16, Revision B.01,
 Gaussian 16:  ES64L-G16RevB.01 20-Dec-2017

 -----------------------------------------------
 # opt=(z-matrix,tight) mp2/aug-cc-pvtz freq=anh
 -----------------------------------------------

 -----
 title
 -----
 Symbolic Z-matrix:
 Charge = -1 Multiplicity = 1

 SCF Done:  E(RHF) =  -994.522425408     A.U. after   13 cycles
 E2 =    -0.6691471798D+00 EUMP2 =    -0.99519157258814D+03
 SCF Done:  E(RHF) =  -994.523445810     A.U. after   11 cycles
 E2 =    -0.6686862580D+00 EUMP2 =    -0.99519213206804D+03
 SCF Done:  E(RHF) =  -994.523919954     A.U. after    9 cycles
 E2 =    -0.6682790105D+00 EUMP2 =    -0.99519219896453D+03
 SCF Done:  E(RHF) =  -994.524015015     A.U. after    9 cycles
 E2 =    -0.6681887156D+00 EUMP2 =    -0.99519220373066D+03
 SCF Done:  E(RHF) =  -994.524025861     A.U. after    7 cycles
 E2 =    -0.6681780582D+00 EUMP2 =    -0.99519220391967D+03
 SCF Done:  E(RHF) =  -994.524027571     A.U. after    8 cycles
 E2 =    -0.6681764640D+00 EUMP2 =    -0.99519220403514D+03
 SCF Done:  E(RHF) =  -994.524031344     A.U. after    9 cycles
 E2 =    -0.6681727998D+00 EUMP2 =    -0.99519220414331D+03
 SCF Done:  E(RHF) =  -994.524027525     A.U. after    7 cycles
 E2 =    -0.6681766602D+00 EUMP2 =    -0.99519220418492D+03
 SCF Done:  E(RHF) =  -994.524023720     A.U. after    6 cycles
 E2 =    -0.6681804952D+00 EUMP2 =    -0.99519220421568D+03
 SCF Done:  E(RHF) =  -994.524017792     A.U. after    6 cycles
 E2 =    -0.6681864364D+00 EUMP2 =    -0.99519220422819D+03
 E2 =    -0.6681902921D+00 EUMP2 =    -0.99519220423701D+03
 Optimization completed.
    -- Stationary point found.
 Normal termination of Gaussian 16 at Tue Jun 22 19:16:03 2021.

 ----------------------------------------------------------------------
 #N Geom=AllCheck Guess=TCheck SCRF=Check GenChk RMP2(FC)/Aug-CC-pVTZ F
 req
 ----------------------------------------------------------------------

 Structure from the checkpoint file:  "/gscratch/ilahie/abmccoy/hocl/cl_hocl_tz.chk"
 -----
 title
 -----
 Charge = -1 Multiplicity = 1

                         Standard orientation:
 ---------------------------------------------------------------------
 Center     Atomic      Atomic             Coordinates (Angstroms)
 Number     Number       Type             X           Y           Z
 ---------------------------------------------------------------------
      1          8           0        0.664852    0.971384   -0.000000
      2          1           0       -0.266943    0.536331    0.000006
      3         17           0        1.716851   -0.343000    0.000000
      4         17           0       -2.014020   -0.145671   -0.000000
 ---------------------------------------------------------------------

 E2 =    -0.6681902870D+00 EUMP2 =    -0.99519220423185D+03
 E2 =    -0.6681902870D+00 EUMP2 =    -0.99519220423185D+03
 E2 =    -0.6681794559D+00 EUMP2 =    -0.99519220415470D+03
 E2 =    -0.6681794559D+00 EUMP2 =    -0.99519220415470D+03
 E2 =    -0.6682012094D+00 EUMP2 =    -0.99519220415480D+03
 E2 =    -0.6682012094D+00 EUMP2 =    -0.99519220415480D+03
 SCF Done:  E(RHF) =  -994.523972722     A.U. after    9 cycles
 E2 =    -0.6682309727D+00 EUMP2 =    -0.99519220369463D+03
 E2 =    -0.6682309727D+00 EUMP2 =    -0.99519220369462D+03
 SCF Done:  E(RHF) =  -994.524053807     A.U. after    9 cycles
 E2 =    -0.6681498808D+00 EUMP2 =    -0.99519220368822D+03
 E2 =    -0.6681498808D+00 EUMP2 =    -0.99519220368822D+03
 SCF Done:  E(RHF) =  -994.524137129     A.U. after    9 cycles
 E2 =    -0.6680629671D+00 EUMP2 =    -0.99519220009596D+03
 E2 =    -0.6680629671D+00 EUMP2 =    -0.99519220009596D+03
 SCF Done:  E(RHF) =  -994.523882827     A.U. after    9 cycles
 E2 =    -0.6683173151D+00 EUMP2 =    -0.99519220014244D+03
 E2 =    -0.6683173151D+00 EUMP2 =    -0.99519220014244D+03
 SCF Done:  E(RHF) =  -994.524006701     A.U. after   10 cycles
 E2 =    -0.6681927392D+00 EUMP2 =    -0.99519219944012D+03
 E2 =    -0.6681927392D+00 EUMP2 =    -0.99519219944012D+03
 SCF Done:  E(RHF) =  -994.524006710     A.U. after   10 cycles
 E2 =    -0.6681927417D+00 EUMP2 =    -0.99519219945164D+03
 E2 =    -0.6681927417D+00 EUMP2 =    -0.99519219945164D+03
 SCF Done:  E(RHF) =  -994.523944512     A.U. after    9 cycles
 E2 =    -0.6682456398D+00 EUMP2 =    -0.99519219015193D+03
 E2 =    -0.6682456398D+00 EUMP2 =    -0.99519219015193D+03
 SCF Done:  E(RHF) =  -994.524047851     A.U. after    9 cycles
 E2 =    -0.6681423621D+00 EUMP2 =    -0.99519219021345D+03
 E2 =    -0.6681423621D+00 EUMP2 =    -0.99519219021345D+03
 SCF Done:  E(RHF) =  -994.523410110     A.U. after    9 cycles
 E2 =    -0.6687461716D+00 EUMP2 =    -0.99519215628138D+03
 E2 =    -0.6687461716D+00 EUMP2 =    -0.99519215628138D+03
 SCF Done:  E(RHF) =  -994.524522424     A.U. after    9 cycles
 E2 =    -0.6676305087D+00 EUMP2 =    -0.99519215293314D+03
 E2 =    -0.6676305087D+00 EUMP2 =    -0.99519215293314D+03

 Alpha  occ. eigenvalues -- -104.72395-104.54908 -20.44982 -10.44349 -10.27397
 Alpha  occ. eigenvalues --   -7.91066  -7.90808  -7.90799  -7.74014  -7.73997
 Alpha  occ. eigenvalues --   -7.73996  -1.21810  -0.88807  -0.78896  -0.53027
 Alpha  occ. eigenvalues --   -0.43297  -0.42471  -0.30191  -0.27269  -0.20516
 Alpha  occ. eigenvalues --   -0.19705  -0.19698
 Alpha virt. eigenvalues --    0.16072   0.18639   0.22623   0.23429   0.25670
 Alpha virt. eigenvalues --    0.27217   0.27494   0.29540   0.31132   0.32785
 Alpha virt. eigenvalues --    0.33672   0.34979   0.38596   0.45223   0.46120

 Mulliken charges:
               1
     1  O   -0.490729
     2  H    0.293986
     3  Cl   0.031823
     4  Cl  -0.835081
 Sum of Mulliken charges =  -1.00000

 Dipole moment (field-independent basis, Debye):
    X=              5.3465    Y=             -0.3112    Z=              0.0000  Tot=              5.3556
 Quadrupole moment (field-independent basis, Debye-Ang):
   XX=            -54.7379   YY=            -37.4112   ZZ=            -36.6605
   XY=             -2.6430   XZ=             -0.0000   YZ=              0.0000

  Exact polarizability:  64.796  -1.821  47.994   0.000   0.000  43.284
 Approx polarizability:  45.725  -3.177  43.731   0.000  -0.000  37.771

                      1                      2                      3
                      A                      A                      A
 Frequencies --    103.4731               281.5583               779.6919
 Red. masses --     18.9914                 9.3781                16.5140
 Frc consts  --      0.1198                 0.4380                 5.9149
 IR Inten    --      9.2326                51.2236                 8.4999

                      4                      5                      6
                      A                      A                      A
 Frequencies --    841.0586              1441.6618              2709.1609
 Red. masses --      1.0339                 1.0517                 1.0771
 Frc consts  --      0.4309                 1.2878                 4.6576
 IR Inten    --     27.1426                33.6191              2782.2460

 - Thermochemistry -
 -------------------
 Temperature   298.150 Kelvin.  Pressure   1.00000 Atm.
 Atom     1 has atomic number  8 and mass  15.99491

 Molecular mass:    86.94045 amu.
 Principal axes and moments of inertia in atomic units:
                           1         2         3
     Eigenvalues --    72.23095 900.11814 972.34909
           X            1.00000   0.00064  -0.00000
           Y           -0.00064   1.00000   0.00000
           Z            0.00000  -0.00000   1.00000
 This molecule is an asymmetric top.
 Rotational symmetry number  1.
 Rotational temperatures (Kelvin)      1.19912     0.09623     0.08908
 Rotational constants (GHZ):          24.98570     2.00500     1.85606
 Zero-point vibrational energy      36824.7 (Joules/Mol)
                                    8.80131 (Kcal/Mol)
 Warning -- explicit consideration of   2 degrees of freedom as
           vibrations may cause significant error
 Vibrational temperatures:    148.87   405.10  1121.80  1210.10  2074.23
          (Kelvin)           3897.88

 Zero-point correction=                           0.014026 (Hartree/Particle)
 Thermal correction to Energy=                    0.018188
 Thermal correction to Enthalpy=                  0.019132
 Thermal correction to Gibbs Free Energy=        -0.014259
 Sum of electronic and zero-point Energies=           -995.178178
 Sum of electronic and thermal Energies=              -995.174016
 Sum of electronic and thermal Enthalpies=            -995.173072
 Sum of electronic and thermal Free Energies=         -995.206464

                     E (Thermal)             CV                S
                      KCal/Mol        Cal/Mol-Kelvin    Cal/Mol-Kelvin
 Total                   11.413             10.978             70.279
 Electronic               0.000              0.000              0.000
 Translational            0.889              2.981             39.301
 Rotational               0.889              2.981             25.650
 Vibrational              9.636              5.017              5.328
 Vibration     1          0.605              1.946              3.388
 Vibration     2          0.681              1.708              1.524

 ## DEPERTURBED TRANSITIONS MOMENTS ##

 Electric dipole : Fundamental Bands
 ------------------------------------------------------------------------

 ## AFTER VARIATIONAL CORRECTION

 Electric dipole : Fundamental Bands
 ------------------------------------------------------------------------

 Optimization completed.
    -- Stationary point found.
 Normal termination of Gaussian 16 at Tue Jun 22 19:47:26 2021.
