 Gaussian 16, Revision B.01,
 Gaussian 16:  ES64L-G16RevB.01 20-Dec-2017

 -------------------------------------------------
 #p opt=(z-matrix) mp2/aug-cc-pvtz density=current
 -------------------------------------------------

 -----
 title
 -----
 Symbolic Z-matrix:
 Charge = -1 Multiplicity = 1

 SCF Done:  E(RHF) =  -535.604575865     A.U. after   12 cycles
 E2 =    -0.4947729547D+00 EUMP2 =    -0.53609934881954D+03
 SCF Done:  E(RHF) =  -535.640277710     A.U. after   10 cycles
 E2 =    -0.4880012944D+00 EUMP2 =    -0.53612827900451D+03
 SCF Done:  E(RHF) =  -535.650607789     A.U. after   10 cycles
 E2 =    -0.4833710112D+00 EUMP2 =    -0.53613397879975D+03
 SCF Done:  E(RHF) =  -535.650727141     A.U. after    9 cycles
 E2 =    -0.4833974904D+00 EUMP2 =    -0.53613412463098D+03
 SCF Done:  E(RHF) =  -535.651340905     A.U. after    9 cycles
 E2 =    -0.4828810459D+00 EUMP2 =    -0.53613422195091D+03
 SCF Done:  E(RHF) =  -535.651321131     A.U. after    8 cycles
 E2 =    -0.4829584997D+00 EUMP2 =    -0.53613427963122D+03
 SCF Done:  E(RHF) =  -535.651542099     A.U. after    9 cycles
 E2 =    -0.4827873937D+00 EUMP2 =    -0.53613432949293D+03
 SCF Done:  E(RHF) =  -535.651349219     A.U. after    8 cycles
 E2 =    -0.4830009064D+00 EUMP2 =    -0.53613435012555D+03
 SCF Done:  E(RHF) =  -535.651126726     A.U. after    9 cycles
 E2 =    -0.4828408841D+00 EUMP2 =    -0.53613396760981D+03
 SCF Done:  E(RHF) =  -535.651179211     A.U. after    8 cycles
 E2 =    -0.4832069311D+00 EUMP2 =    -0.53613438614183D+03
 SCF Done:  E(RHF) =  -535.651247156     A.U. after    8 cycles
 E2 =    -0.4830272082D+00 EUMP2 =    -0.53613427436460D+03
 SCF Done:  E(RHF) =  -535.651050752     A.U. after    9 cycles
 E2 =    -0.4833155842D+00 EUMP2 =    -0.53613436633662D+03
 SCF Done:  E(RHF) =  -535.651747748     A.U. after    9 cycles
 E2 =    -0.4820743644D+00 EUMP2 =    -0.53613382211224D+03
 SCF Done:  E(RHF) =  -535.651205953     A.U. after    3 cycles
 E2 =    -0.4831804626D+00 EUMP2 =    -0.53613438641545D+03
 SCF Done:  E(RHF) =  -535.651209928     A.U. after    8 cycles
 E2 =    -0.4831740661D+00 EUMP2 =    -0.53613438399415D+03
 SCF Done:  E(RHF) =  -535.651115636     A.U. after    7 cycles
 E2 =    -0.4832749669D+00 EUMP2 =    -0.53613439060302D+03
 SCF Done:  E(RHF) =  -535.651109886     A.U. after    7 cycles
 E2 =    -0.4832812722D+00 EUMP2 =    -0.53613439115775D+03
 SCF Done:  E(RHF) =  -535.651111825     A.U. after    5 cycles
 E2 =    -0.4832793587D+00 EUMP2 =    -0.53613439118346D+03
 Optimization completed.
    -- Stationary point found.

                         Standard orientation:
 ---------------------------------------------------------------------
 Center     Atomic      Atomic             Coordinates (Angstroms)
 Number     Number       Type             X           Y           Z
 ---------------------------------------------------------------------
      1          8           0       -1.980675    0.094283   -0.000006
      2          1           0       -2.062865   -0.862922    0.000009
      3         17           0        1.111944   -0.004971   -0.000001
      4          1           0       -0.994780    0.193170    0.000063
 ---------------------------------------------------------------------

 The electronic state is 1-A.
 Alpha  occ. eigenvalues -- -104.53066 -20.37731 -10.25514  -7.72123  -7.72117
 Alpha  occ. eigenvalues --   -7.72116  -1.15865  -0.76569  -0.51382  -0.40819
 Alpha  occ. eigenvalues --   -0.32274  -0.18245  -0.17824  -0.17768
 Alpha virt. eigenvalues --    0.14135   0.18034   0.25588   0.26637   0.28020
 Alpha virt. eigenvalues --    0.28889   0.30461   0.31024   0.34742   0.39575
 Alpha virt. eigenvalues --    0.41742   0.41942   0.43520   0.49853   0.53347

 Mulliken charges:
               1
     1  O   -0.553128
     2  H    0.178265
     3  Cl  -0.915791
     4  H    0.290654
 Sum of Mulliken charges =  -1.00000

 Dipole moment (field-independent basis, Debye):
    X=             -2.3883    Y=             -1.2423    Z=              0.0001  Tot=              2.6921
 Quadrupole moment (field-independent basis, Debye-Ang):
   XX=            -36.1805   YY=            -22.8348   ZZ=            -25.1341
   XY=              3.3818   XZ=             -0.0001   YZ=              0.0000

 Normal termination of Gaussian 16 at Mon Dec 20 16:24:38 2021.
