 Gaussian 16, Revision B.01,
 Gaussian 16:  ES64L-G16RevB.01 20-Dec-2017

 ----------------------------------------------------
 #p pop=NBO SP NoSymm mp2/aug-cc-pvtz density=current
 ----------------------------------------------------

 -----
 title
 -----
 Symbolic Z-matrix:
 Charge = -1 Multiplicity = 1

                          Input orientation:
 ---------------------------------------------------------------------
 Center     Atomic      Atomic             Coordinates (Angstroms)
 Number     Number       Type             X           Y           Z
 ---------------------------------------------------------------------
      1          8           0        0.000000    0.000000    0.000000
      2          1           0        0.960788    0.000000    0.000000
      3         35           0       -0.662564   -3.188507    0.000000
      4          1           0       -0.126819   -0.610300    0.742864
 ---------------------------------------------------------------------

 SCF Done:  E(RHF) =  -2648.59320977     A.U. after   11 cycles
 E2 =    -0.5158314084D+00 EUMP2 =    -0.26491090411766D+04

 Alpha  occ. eigenvalues -- -489.72556 -64.86576 -58.22026 -58.22024 -58.22018
 Alpha  occ. eigenvalues --  -20.40738  -9.53822  -7.14576  -7.14563  -7.14538
 Alpha  occ. eigenvalues --   -2.88753  -2.88752  -2.88717  -2.88702  -2.88694
 Alpha  occ. eigenvalues --   -1.19248  -0.69383  -0.53780  -0.43799  -0.35104
 Alpha  occ. eigenvalues --   -0.14792  -0.14614  -0.14379
 Alpha virt. eigenvalues --    0.13509   0.16185   0.23846   0.24421   0.25704
 Alpha virt. eigenvalues --    0.26714   0.28392   0.29882   0.32598   0.36093
 Alpha virt. eigenvalues --    0.37260   0.38727   0.42191   0.45468   0.47864

 Mulliken charges:
               1
     1  O   -0.443756
     2  H    0.188432
     3  Br  -0.971702
     4  H    0.227027
 Sum of Mulliken charges =  -1.00000

 Dipole moment (field-independent basis, Debye):
    X=              4.1508    Y=             13.7310    Z=              0.7375  Tot=             14.3636
 Quadrupole moment (field-independent basis, Debye-Ang):
   XX=            -31.4570   YY=            -79.3999   ZZ=            -30.6188
   XY=             -9.4024   XZ=             -0.2187   YZ=             -0.3063

 Summary of Natural Population Analysis:

                                       Natural Population
                Natural  -----------------------------------------------
    Atom  No    Charge         Core      Valence    Rydberg      Total
 -----------------------------------------------------------------------
      O    1   -0.93611      1.99968     6.82738    0.10905     8.93611
      H    2    0.44541      0.00000     0.54791    0.00668     0.55459
     Br    3   -0.98729     27.98853     7.83566    0.16310    35.98729
      H    4    0.47799      0.00000     0.50531    0.01671     0.52201
 =======================================================================
   * Total *   -1.00000     29.98821    15.71625    0.29554    46.00000

 Normal termination of Gaussian 16 at Tue Oct 19 16:42:17 2021.
