 Gaussian 16, Revision B.01,
 Gaussian 16:  ES64L-G16RevB.01 20-Dec-2017

 ----------------------------------------------------
 #p pop=NBO SP NoSymm mp2/aug-cc-pvtz density=current
 ----------------------------------------------------

 -----
 title
 -----
 Symbolic Z-matrix:
 Charge = -1 Multiplicity = 1

                          Input orientation:
 ---------------------------------------------------------------------
 Center     Atomic      Atomic             Coordinates (Angstroms)
 Number     Number       Type             X           Y           Z
 ---------------------------------------------------------------------
      1          8           0        0.000000    0.000000    0.000000
      2          1           0        0.960788    0.000000    0.000000
      3         35           0       -0.662564   -3.188507    0.000000
      4          1           0       -0.162496   -0.781993    0.559254
 ---------------------------------------------------------------------

 SCF Done:  E(RHF) =  -2648.59953604     A.U. after   11 cycles
 E2 =    -0.5167826438D+00 EUMP2 =    -0.26491163186865D+04

 Alpha  occ. eigenvalues -- -489.73169 -64.87191 -58.22641 -58.22639 -58.22634
 Alpha  occ. eigenvalues --  -20.40003  -9.54436  -7.15192  -7.15174  -7.15156
 Alpha  occ. eigenvalues --   -2.89365  -2.89363  -2.89336  -2.89315  -2.89311
 Alpha  occ. eigenvalues --   -1.18376  -0.70102  -0.53499  -0.42873  -0.34443
 Alpha  occ. eigenvalues --   -0.15530  -0.15225  -0.15065
 Alpha virt. eigenvalues --    0.13551   0.16779   0.23664   0.24274   0.25414
 Alpha virt. eigenvalues --    0.27152   0.28128   0.29953   0.33625   0.35983
 Alpha virt. eigenvalues --    0.38503   0.39457   0.41905   0.45614   0.47944

 Mulliken charges:
               1
     1  O   -0.467384
     2  H    0.181623
     3  Br  -0.952143
     4  H    0.237904
 Sum of Mulliken charges =  -1.00000

 Dipole moment (field-independent basis, Debye):
    X=              4.0410    Y=             13.1685    Z=              0.4924  Tot=             13.7834
 Quadrupole moment (field-independent basis, Debye-Ang):
   XX=            -31.2178   YY=            -77.2701   ZZ=            -31.1098
   XY=             -8.9824   XZ=             -0.1772   YZ=             -0.3034

 Summary of Natural Population Analysis:

                                       Natural Population
                Natural  -----------------------------------------------
    Atom  No    Charge         Core      Valence    Rydberg      Total
 -----------------------------------------------------------------------
      O    1   -0.95837      1.99968     6.85062    0.10807     8.95837
      H    2    0.44526      0.00000     0.54795    0.00678     0.55474
     Br    3   -0.97406     27.98850     7.82527    0.16028    35.97406
      H    4    0.48716      0.00000     0.49379    0.01905     0.51284
 =======================================================================
   * Total *   -1.00000     29.98817    15.71763    0.29419    46.00000

 Normal termination of Gaussian 16 at Tue Oct 19 16:41:37 2021.
