 Gaussian 16, Revision B.01,
 Gaussian 16:  ES64L-G16RevB.01 20-Dec-2017

 ----------------------------------------------------
 #p pop=NBO SP NoSymm mp2/aug-cc-pvtz density=current
 ----------------------------------------------------

 -----
 title
 -----
 Symbolic Z-matrix:
 Charge = -1 Multiplicity = 1

                          Input orientation:
 ---------------------------------------------------------------------
 Center     Atomic      Atomic             Coordinates (Angstroms)
 Number     Number       Type             X           Y           Z
 ---------------------------------------------------------------------
      1          8           0        0.000000    0.000000    0.000000
      2          1           0        0.960788    0.000000    0.000000
      3         35           0       -0.662564   -3.188507    0.000000
      4          1           0       -0.193459   -0.930999    0.254789
 ---------------------------------------------------------------------

 SCF Done:  E(RHF) =  -2648.60566072     A.U. after   11 cycles
 E2 =    -0.5184112979D+00 EUMP2 =    -0.26491240720181D+04

 Alpha  occ. eigenvalues -- -489.73864 -64.87889 -58.23338 -58.23337 -58.23334
 Alpha  occ. eigenvalues --  -20.39111  -9.55134  -7.15891  -7.15870  -7.15862
 Alpha  occ. eigenvalues --   -2.90059  -2.90053  -2.90042  -2.90018  -2.90017
 Alpha  occ. eigenvalues --   -1.17292  -0.70967  -0.52908  -0.41852  -0.33586
 Alpha  occ. eigenvalues --   -0.16401  -0.15923  -0.15851
 Alpha virt. eigenvalues --    0.13584   0.17295   0.23431   0.24184   0.24994
 Alpha virt. eigenvalues --    0.27626   0.28629   0.29944   0.34541   0.35039
 Alpha virt. eigenvalues --    0.39734   0.40750   0.41574   0.45850   0.48152

 Mulliken charges:
               1
     1  O   -0.517280
     2  H    0.170689
     3  Br  -0.928317
     4  H    0.274909
 Sum of Mulliken charges =  -1.00000

 Dipole moment (field-independent basis, Debye):
    X=              3.9158    Y=             12.5554    Z=              0.1931  Tot=             13.1533
 Quadrupole moment (field-independent basis, Debye-Ang):
   XX=            -30.9410   YY=            -74.7820   ZZ=            -31.5764
   XY=             -8.5027   XZ=             -0.0798   YZ=             -0.1430

 Summary of Natural Population Analysis:

                                       Natural Population
                Natural  -----------------------------------------------
    Atom  No    Charge         Core      Valence    Rydberg      Total
 -----------------------------------------------------------------------
      O    1   -0.98489      1.99967     6.87707    0.10814     8.98489
      H    2    0.44448      0.00000     0.54860    0.00692     0.55552
     Br    3   -0.94855     27.98842     7.80342    0.15671    35.94855
      H    4    0.48895      0.00000     0.48950    0.02154     0.51105
 =======================================================================
   * Total *   -1.00000     29.98809    15.71860    0.29331    46.00000

 Normal termination of Gaussian 16 at Tue Oct 19 16:40:46 2021.
