 Gaussian 16, Revision B.01,
 Gaussian 16:  ES64L-G16RevB.01 20-Dec-2017

 ----------------------------------------------------
 #p pop=NBO SP NoSymm mp2/aug-cc-pvtz density=current
 ----------------------------------------------------

 -----
 title
 -----
 Symbolic Z-matrix:
 Charge = -1 Multiplicity = 1

                          Input orientation:
 ---------------------------------------------------------------------
 Center     Atomic      Atomic             Coordinates (Angstroms)
 Number     Number       Type             X           Y           Z
 ---------------------------------------------------------------------
      1          8           0        0.000000    0.000000    0.000000
      2          1           0        0.960788    0.000000    0.000000
      3         35           0       -0.662564   -3.188507    0.000000
      4          1           0       -0.180669   -0.869446    0.414090
 ---------------------------------------------------------------------

 SCF Done:  E(RHF) =  -2648.60306988     A.U. after   11 cycles
 E2 =    -0.5176199144D+00 EUMP2 =    -0.26491206897973D+04

 Alpha  occ. eigenvalues -- -489.73555 -64.87579 -58.23028 -58.23026 -58.23022
 Alpha  occ. eigenvalues --  -20.39516  -9.54823  -7.15580  -7.15560  -7.15547
 Alpha  occ. eigenvalues --   -2.89751  -2.89746  -2.89728  -2.89705  -2.89702
 Alpha  occ. eigenvalues --   -1.17787  -0.70575  -0.53202  -0.42304  -0.33982
 Alpha  occ. eigenvalues --   -0.16010  -0.15612  -0.15500
 Alpha virt. eigenvalues --    0.13572   0.17091   0.23531   0.24219   0.25195
 Alpha virt. eigenvalues --    0.27556   0.28083   0.29960   0.34202   0.35646
 Alpha virt. eigenvalues --    0.39311   0.40088   0.41682   0.45623   0.48056

 Mulliken charges:
               1
     1  O   -0.491123
     2  H    0.175795
     3  Br  -0.939065
     4  H    0.254393
 Sum of Mulliken charges =  -1.00000

 Dipole moment (field-independent basis, Debye):
    X=              3.9718    Y=             12.8263    Z=              0.3361  Tot=             13.4314
 Quadrupole moment (field-independent basis, Debye-Ang):
   XX=            -31.0645   YY=            -75.8942   ZZ=            -31.3820
   XY=             -8.7161   XZ=             -0.1318   YZ=             -0.2343

 Summary of Natural Population Analysis:

                                       Natural Population
                Natural  -----------------------------------------------
    Atom  No    Charge         Core      Valence    Rydberg      Total
 -----------------------------------------------------------------------
      O    1   -0.97301      1.99967     6.86537    0.10797     8.97301
      H    2    0.44490      0.00000     0.54825    0.00686     0.55510
     Br    3   -0.96134     27.98846     7.81456    0.15832    35.96134
      H    4    0.48945      0.00000     0.49007    0.02048     0.51055
 =======================================================================
   * Total *   -1.00000     29.98814    15.71824    0.29362    46.00000

 Normal termination of Gaussian 16 at Tue Oct 19 16:41:11 2021.
