 Gaussian 09, Revision E.01,
 Gaussian 09:  ES64L-G09RevE.01 30-Nov-2015

 -------------------------------------------------
 #p opt=(z-matrix) mp2/aug-cc-pvtz density=current
 -------------------------------------------------

 -----
 title
 -----
 Symbolic Z-matrix:
 Charge = -1 Multiplicity = 1

 SCF Done:  E(RHF) =  -2648.60428432     A.U. after   11 cycles
 E2 =    -0.5199018605D+00 EUMP2 =    -0.26491241861820D+04
 SCF Done:  E(RHF) =  -2648.60728973     A.U. after   10 cycles
 E2 =    -0.5187962797D+00 EUMP2 =    -0.26491260860095D+04
 SCF Done:  E(RHF) =  -2648.60740807     A.U. after    9 cycles
 E2 =    -0.5187646421D+00 EUMP2 =    -0.26491261727085D+04
 SCF Done:  E(RHF) =  -2648.60733106     A.U. after    7 cycles
 E2 =    -0.5188497859D+00 EUMP2 =    -0.26491261808466D+04
 SCF Done:  E(RHF) =  -2648.60718273     A.U. after    7 cycles
 E2 =    -0.5190022355D+00 EUMP2 =    -0.26491261849641D+04
 SCF Done:  E(RHF) =  -2648.60720026     A.U. after    6 cycles
 E2 =    -0.5189847715D+00 EUMP2 =    -0.26491261850300D+04
 Optimization completed.
    -- Stationary point found.

                         Standard orientation:
 ---------------------------------------------------------------------
 Center     Atomic      Atomic             Coordinates (Angstroms)
 Number     Number       Type             X           Y           Z
 ---------------------------------------------------------------------
      1          8           0        0.020904    2.550533    0.000000
      2          1           0       -0.919788    2.746007    0.000000
      3         35           0        0.020904   -0.706087    0.000000
      4          1           0        0.020904    1.562768    0.000000
 ---------------------------------------------------------------------

 The electronic state is 1-A'.
 Alpha  occ. eigenvalues -- -489.74062 -64.88088 -58.23537 -58.23535 -58.23535
 Alpha  occ. eigenvalues --  -20.38846  -9.55334  -7.16090  -7.16068  -7.16065
 Alpha  occ. eigenvalues --   -2.90256  -2.90247  -2.90243  -2.90221  -2.90220
 Alpha  occ. eigenvalues --   -1.16963  -0.71224  -0.52696  -0.41563  -0.33320
 Alpha  occ. eigenvalues --   -0.16652  -0.16122  -0.16079
 Alpha virt. eigenvalues --    0.13587   0.17396   0.23371   0.24171   0.24847
 Alpha virt. eigenvalues --    0.27526   0.29607   0.29908   0.33883   0.34904
 Alpha virt. eigenvalues --    0.39865   0.41076   0.41663   0.46396   0.48132

 Mulliken charges:
               1
     1  O   -0.537484
     2  H    0.167562
     3  Br  -0.921697
     4  H    0.291619
 Sum of Mulliken charges =  -1.00000

 Dipole moment (field-independent basis, Debye):
    X=             -1.3797    Y=              0.6625    Z=              0.0000  Tot=              1.5305
 Quadrupole moment (field-independent basis, Debye-Ang):
   XX=            -29.3726   YY=            -40.9871   ZZ=            -31.6898
   XY=             -4.1821   XZ=              0.0000   YZ=              0.0000

 Normal termination of Gaussian 09 at Tue Oct 12 14:05:30 2021.
