 Gaussian 16, Revision B.01,
 Gaussian 16:  ES64L-G16RevB.01 20-Dec-2017

 ----------------------------------------------------
 #p pop=NBO SP NoSymm mp2/aug-cc-pvtz density=current
 ----------------------------------------------------

 -----
 title
 -----
 Symbolic Z-matrix:
 Charge = -1 Multiplicity = 1

                          Input orientation:
 ---------------------------------------------------------------------
 Center     Atomic      Atomic             Coordinates (Angstroms)
 Number     Number       Type             X           Y           Z
 ---------------------------------------------------------------------
      1          8           0        0.000000    0.000000    0.000000
      2          1           0        0.960788    0.000000    0.000000
      3         35           0       -0.662564   -3.188507    0.000000
      4          1           0       -0.187787   -0.903699    0.335946
 ---------------------------------------------------------------------

 SCF Done:  E(RHF) =  -2648.60450335     A.U. after   11 cycles
 E2 =    -0.5180358303D+00 EUMP2 =    -0.26491225391836D+04

 Alpha  occ. eigenvalues -- -489.73723 -64.87747 -58.23197 -58.23195 -58.23191
 Alpha  occ. eigenvalues --  -20.39298  -9.54992  -7.15749  -7.15729  -7.15718
 Alpha  occ. eigenvalues --   -2.89918  -2.89913  -2.89898  -2.89875  -2.89873
 Alpha  occ. eigenvalues --   -1.17521  -0.70786  -0.53048  -0.42059  -0.33770
 Alpha  occ. eigenvalues --   -0.16222  -0.15781  -0.15690
 Alpha virt. eigenvalues --    0.13579   0.17207   0.23475   0.24199   0.25089
 Alpha virt. eigenvalues --    0.27644   0.28272   0.29954   0.34418   0.35367
 Alpha virt. eigenvalues --    0.39574   0.40445   0.41603   0.45693   0.48112

 Mulliken charges:
               1
     1  O   -0.504493
     2  H    0.173028
     3  Br  -0.933233
     4  H    0.264698
 Sum of Mulliken charges =  -1.00000

 Dipole moment (field-independent basis, Debye):
    X=              3.9414    Y=             12.6790    Z=              0.2628  Tot=             13.2801
 Quadrupole moment (field-independent basis, Debye-Ang):
   XX=            -30.9975   YY=            -75.2911   ZZ=            -31.4901
   XY=             -8.6002   XZ=             -0.1062   YZ=             -0.1900

 Summary of Natural Population Analysis:

                                       Natural Population
                Natural  -----------------------------------------------
    Atom  No    Charge         Core      Valence    Rydberg      Total
 -----------------------------------------------------------------------
      O    1   -0.97946      1.99967     6.87175    0.10804     8.97946
      H    2    0.44468      0.00000     0.54843    0.00689     0.55532
     Br    3   -0.95468     27.98844     7.80879    0.15744    35.95468
      H    4    0.48945      0.00000     0.48948    0.02107     0.51055
 =======================================================================
   * Total *   -1.00000     29.98811    15.71845    0.29344    46.00000

 Normal termination of Gaussian 16 at Tue Oct 19 16:40:59 2021.
