 Gaussian 16, Revision B.01,
 Gaussian 16:  ES64L-G16RevB.01 20-Dec-2017

 ----------------------------------------------------
 #p pop=NBO SP NoSymm mp2/aug-cc-pvtz density=current
 ----------------------------------------------------

 -----
 title
 -----
 Symbolic Z-matrix:
 Charge = -1 Multiplicity = 1

                          Input orientation:
 ---------------------------------------------------------------------
 Center     Atomic      Atomic             Coordinates (Angstroms)
 Number     Number       Type             X           Y           Z
 ---------------------------------------------------------------------
      1          8           0        0.000000    0.000000    0.000000
      2          1           0        0.960788    0.000000    0.000000
      3         35           0       -0.662564   -3.188507    0.000000
      4          1           0       -0.200961   -0.967101    0.000000
 ---------------------------------------------------------------------

 SCF Done:  E(RHF) =  -2648.60720049     A.U. after   11 cycles
 E2 =    -0.5189845325D+00 EUMP2 =    -0.26491261850233D+04

 Alpha  occ. eigenvalues -- -489.74062 -64.88088 -58.23537 -58.23535 -58.23535
 Alpha  occ. eigenvalues --  -20.38846  -9.55334  -7.16090  -7.16068  -7.16065
 Alpha  occ. eigenvalues --   -2.90256  -2.90247  -2.90243  -2.90221  -2.90220
 Alpha  occ. eigenvalues --   -1.16963  -0.71224  -0.52696  -0.41564  -0.33320
 Alpha  occ. eigenvalues --   -0.16652  -0.16122  -0.16078
 Alpha virt. eigenvalues --    0.13587   0.17396   0.23371   0.24171   0.24847
 Alpha virt. eigenvalues --    0.27526   0.29607   0.29907   0.33883   0.34904
 Alpha virt. eigenvalues --    0.39865   0.41076   0.41663   0.46396   0.48132

 Mulliken charges:
               1
     1  O   -0.537481
     2  H    0.167562
     3  Br  -0.921699
     4  H    0.291618
 Sum of Mulliken charges =  -1.00000

 Dipole moment (field-independent basis, Debye):
    X=              3.8798    Y=             12.3829    Z=             -0.0000  Tot=             12.9764
 Quadrupole moment (field-independent basis, Debye-Ang):
   XX=            -30.8616   YY=            -74.0677   ZZ=            -31.6898
   XY=             -8.3662   XZ=              0.0000   YZ=              0.0000

 Summary of Natural Population Analysis:

                                       Natural Population
                Natural  -----------------------------------------------
    Atom  No    Charge         Core      Valence    Rydberg      Total
 -----------------------------------------------------------------------
      O    1   -0.98812      1.99967     6.88578    0.10267     8.98812
      H    2    0.43884      0.00000     0.54908    0.01208     0.56116
     Br    3   -0.93907     27.98838     7.79515    0.15554    35.93907
      H    4    0.48835      0.00000     0.49030    0.02135     0.51165
 =======================================================================
   * Total *   -1.00000     29.98805    15.72031    0.29164    46.00000

 Normal termination of Gaussian 16 at Tue Oct 19 16:40:07 2021.
