 Gaussian 16, Revision B.01,
 Gaussian 16:  ES64L-G16RevB.01 20-Dec-2017

 ----------------------------------------------------
 #p pop=NBO SP NoSymm mp2/aug-cc-pvtz density=current
 ----------------------------------------------------

 -----
 title
 -----
 Symbolic Z-matrix:
 Charge = -1 Multiplicity = 1

                          Input orientation:
 ---------------------------------------------------------------------
 Center     Atomic      Atomic             Coordinates (Angstroms)
 Number     Number       Type             X           Y           Z
 ---------------------------------------------------------------------
      1          8           0        0.000000    0.000000    0.000000
      2          1           0        0.960788    0.000000    0.000000
      3         35           0       -0.662564   -3.188507    0.000000
      4          1           0       -0.172205   -0.828716    0.488680
 ---------------------------------------------------------------------

 SCF Done:  E(RHF) =  -2648.60139978     A.U. after   11 cycles
 E2 =    -0.5171933266D+00 EUMP2 =    -0.26491185931057D+04

 Alpha  occ. eigenvalues -- -489.73368 -64.87391 -58.22841 -58.22839 -58.22834
 Alpha  occ. eigenvalues --  -20.39755  -9.54636  -7.15392  -7.15373  -7.15357
 Alpha  occ. eigenvalues --   -2.89564  -2.89561  -2.89538  -2.89516  -2.89512
 Alpha  occ. eigenvalues --   -1.18077  -0.70343  -0.53356  -0.42579  -0.34210
 Alpha  occ. eigenvalues --   -0.15777  -0.15425  -0.15289
 Alpha virt. eigenvalues --    0.13562   0.16946   0.23595   0.24244   0.25305
 Alpha virt. eigenvalues --    0.27359   0.28071   0.29961   0.33933   0.35848
 Alpha virt. eigenvalues --    0.38941   0.39751   0.41790   0.45609   0.47998

 Mulliken charges:
               1
     1  O   -0.478483
     2  H    0.178742
     3  Br  -0.945465
     4  H    0.245206
 Sum of Mulliken charges =  -1.00000

 Dipole moment (field-independent basis, Debye):
    X=              4.0054    Y=             12.9913    Z=              0.4128  Tot=             13.6010
 Quadrupole moment (field-independent basis, Debye-Ang):
   XX=            -31.1389   YY=            -76.5629   ZZ=            -31.2542
   XY=             -8.8451   XZ=             -0.1557   YZ=             -0.2733

 Summary of Natural Population Analysis:

                                       Natural Population
                Natural  -----------------------------------------------
    Atom  No    Charge         Core      Valence    Rydberg      Total
 -----------------------------------------------------------------------
      O    1   -0.96587      1.99967     6.85823    0.10797     8.96587
      H    2    0.44510      0.00000     0.54808    0.00682     0.55490
     Br    3   -0.96795     27.98848     7.82019    0.15928    35.96795
      H    4    0.48873      0.00000     0.49147    0.01980     0.51127
 =======================================================================
   * Total *   -1.00000     29.98816    15.71797    0.29387    46.00000

 Normal termination of Gaussian 16 at Tue Oct 19 16:41:25 2021.
