 Gaussian 16, Revision B.01,
 Gaussian 16:  ES64L-G16RevB.01 20-Dec-2017

 ----------------------------------------------------
 #p pop=NBO SP NoSymm mp2/aug-cc-pvtz density=current
 ----------------------------------------------------

 -----
 title
 -----
 Symbolic Z-matrix:
 Charge = -1 Multiplicity = 1

                          Input orientation:
 ---------------------------------------------------------------------
 Center     Atomic      Atomic             Coordinates (Angstroms)
 Number     Number       Type             X           Y           Z
 ---------------------------------------------------------------------
      1          8           0        0.000000    0.000000    0.000000
      2          1           0        0.960788    0.000000    0.000000
      3         35           0       -0.662564   -3.188507    0.000000
      4          1           0       -0.197640   -0.951117    0.171290
 ---------------------------------------------------------------------

 SCF Done:  E(RHF) =  -2648.60649767     A.U. after   11 cycles
 E2 =    -0.5187264482D+00 EUMP2 =    -0.26491252241153D+04

 Alpha  occ. eigenvalues -- -489.73973 -64.87998 -58.23447 -58.23446 -58.23444
 Alpha  occ. eigenvalues --  -20.38967  -9.55244  -7.16001  -7.15979  -7.15973
 Alpha  occ. eigenvalues --   -2.90167  -2.90160  -2.90152  -2.90129  -2.90128
 Alpha  occ. eigenvalues --   -1.17108  -0.71107  -0.52788  -0.41692  -0.33440
 Alpha  occ. eigenvalues --   -0.16538  -0.16032  -0.15975
 Alpha virt. eigenvalues --    0.13586   0.17353   0.23398   0.24176   0.24916
 Alpha virt. eigenvalues --    0.27580   0.29056   0.29933   0.34390   0.34872
 Alpha virt. eigenvalues --    0.39820   0.40948   0.41601   0.46078   0.48162

 Mulliken charges:
               1
     1  O   -0.528068
     2  H    0.168953
     3  Br  -0.924578
     4  H    0.283692
 Sum of Mulliken charges =  -1.00000

 Dipole moment (field-independent basis, Debye):
    X=              3.8960    Y=             12.4606    Z=              0.1266  Tot=             13.0561
 Quadrupole moment (field-independent basis, Debye-Ang):
   XX=            -30.8978   YY=            -74.3908   ZZ=            -31.6391
   XY=             -8.4279   XZ=             -0.0531   YZ=             -0.0951

 Summary of Natural Population Analysis:

                                       Natural Population
                Natural  -----------------------------------------------
    Atom  No    Charge         Core      Valence    Rydberg      Total
 -----------------------------------------------------------------------
      O    1   -0.98480      1.99967     6.88254    0.10259     8.98480
      H    2    0.43901      0.00000     0.54895    0.01204     0.56099
     Br    3   -0.94337     27.98840     7.79897    0.15600    35.94337
      H    4    0.48917      0.00000     0.48977    0.02106     0.51083
 =======================================================================
   * Total *   -1.00000     29.98807    15.72024    0.29169    46.00000

 Normal termination of Gaussian 16 at Tue Oct 19 16:40:34 2021.
