 Gaussian 16, Revision B.01,
 Gaussian 16:  ES64L-G16RevB.01 20-Dec-2017

 ----------------------------------------------------
 #p pop=NBO SP NoSymm mp2/aug-cc-pvtz density=current
 ----------------------------------------------------

 -----
 title
 -----
 Symbolic Z-matrix:
 Charge = -1 Multiplicity = 1

                          Input orientation:
 ---------------------------------------------------------------------
 Center     Atomic      Atomic             Coordinates (Angstroms)
 Number     Number       Type             X           Y           Z
 ---------------------------------------------------------------------
      1          8           0        0.000000    0.000000    0.000000
      2          1           0        0.960788    0.000000    0.000000
      3         35           0       -0.662564   -3.188507    0.000000
      4          1           0       -0.151634   -0.729720    0.625387
 ---------------------------------------------------------------------

 SCF Done:  E(RHF) =  -2648.59752351     A.U. after   11 cycles
 E2 =    -0.5164083922D+00 EUMP2 =    -0.26491139318990D+04

 Alpha  occ. eigenvalues -- -489.72964 -64.86985 -58.22435 -58.22433 -58.22428
 Alpha  occ. eigenvalues --  -20.40254  -9.54230  -7.14986  -7.14970  -7.14948
 Alpha  occ. eigenvalues --   -2.89161  -2.89158  -2.89129  -2.89110  -2.89104
 Alpha  occ. eigenvalues --   -1.18676  -0.69857  -0.53621  -0.43178  -0.34674
 Alpha  occ. eigenvalues --   -0.15280  -0.15021  -0.14836
 Alpha virt. eigenvalues --    0.13538   0.16593   0.23732   0.24311   0.25518
 Alpha virt. eigenvalues --    0.26974   0.28208   0.29937   0.33293   0.36064
 Alpha virt. eigenvalues --    0.38054   0.39195   0.42014   0.45605   0.47900

 Mulliken charges:
               1
     1  O   -0.458050
     2  H    0.184253
     3  Br  -0.958874
     4  H    0.232671
 Sum of Mulliken charges =  -1.00000

 Dipole moment (field-independent basis, Debye):
    X=              4.0777    Y=             13.3532    Z=              0.5738  Tot=             13.9737
 Quadrupole moment (field-independent basis, Debye-Ang):
   XX=            -31.2985   YY=            -77.9918   ZZ=            -30.9527
   XY=             -9.1234   XZ=             -0.1954   YZ=             -0.3212

 Summary of Natural Population Analysis:

                                       Natural Population
                Natural  -----------------------------------------------
    Atom  No    Charge         Core      Valence    Rydberg      Total
 -----------------------------------------------------------------------
      O    1   -0.95078      1.99968     6.84281    0.10829     8.95078
      H    2    0.44538      0.00000     0.54787    0.00675     0.55462
     Br    3   -0.97937     27.98851     7.82958    0.16128    35.97937
      H    4    0.48477      0.00000     0.49696    0.01827     0.51523
 =======================================================================
   * Total *   -1.00000     29.98819    15.71723    0.29458    46.00000

 Normal termination of Gaussian 16 at Tue Oct 19 16:41:51 2021.
