 Gaussian 16, Revision B.01,
 Gaussian 16:  ES64L-G16RevB.01 20-Dec-2017

 -------------------------------------------------
 #p opt=(z-matrix) mp2/aug-cc-pvtz density=current
 -------------------------------------------------

 -----
 title
 -----
 Symbolic Z-matrix:
 Charge = -1 Multiplicity = 1

 SCF Done:  E(RHF) =  -2648.60720026     A.U. after   11 cycles
 E2 =    -0.5189847655D+00 EUMP2 =    -0.26491261850232D+04
 Optimization completed.
    -- Stationary point found.
 SCF Done:  E(RHF) =  -2648.60700497     A.U. after    9 cycles
 E2 =    -0.5189361563D+00 EUMP2 =    -0.26491259411264D+04
 SCF Done:  E(RHF) =  -2648.60702280     A.U. after    6 cycles
 E2 =    -0.5189184530D+00 EUMP2 =    -0.26491259412490D+04
 Optimization completed.
 SCF Done:  E(RHF) =  -2648.60644347     A.U. after    9 cycles
 E2 =    -0.5187795779D+00 EUMP2 =    -0.26491252230502D+04
 SCF Done:  E(RHF) =  -2648.60649778     A.U. after    6 cycles
 E2 =    -0.5187263413D+00 EUMP2 =    -0.26491252241219D+04
 SCF Done:  E(RHF) =  -2648.60555471     A.U. after    9 cycles
 E2 =    -0.5185144206D+00 EUMP2 =    -0.26491240691325D+04
 SCF Done:  E(RHF) =  -2648.60566049     A.U. after    7 cycles
 E2 =    -0.5184115354D+00 EUMP2 =    -0.26491240720240D+04
 SCF Done:  E(RHF) =  -2648.60438788     A.U. after   10 cycles
 E2 =    -0.5181477348D+00 EUMP2 =    -0.26491225356124D+04
 SCF Done:  E(RHF) =  -2648.60450331     A.U. after    7 cycles
 E2 =    -0.5180358801D+00 EUMP2 =    -0.26491225391890D+04
 SCF Done:  E(RHF) =  -2648.60294441     A.U. after   10 cycles
 E2 =    -0.5177409401D+00 EUMP2 =    -0.26491206853488D+04
 E2 =    -0.5176199774D+00 EUMP2 =    -0.26491206898023D+04
 SCF Done:  E(RHF) =  -2648.60127465     A.U. after   10 cycles
 E2 =    -0.5173137450D+00 EUMP2 =    -0.26491185883907D+04
 SCF Done:  E(RHF) =  -2648.60139962     A.U. after    7 cycles
 E2 =    -0.5171934905D+00 EUMP2 =    -0.26491185931105D+04
 SCF Done:  E(RHF) =  -2648.59942001     A.U. after   10 cycles
 E2 =    -0.5168942925D+00 EUMP2 =    -0.26491163142998D+04
 SCF Done:  E(RHF) =  -2648.59953617     A.U. after    7 cycles
 E2 =    -0.5167825163D+00 EUMP2 =    -0.26491163186903D+04
 SCF Done:  E(RHF) =  -2648.59742170     A.U. after   10 cycles
 E2 =    -0.5165065684D+00 EUMP2 =    -0.26491139282646D+04
 SCF Done:  E(RHF) =  -2648.59752342     A.U. after    7 cycles
 E2 =    -0.5164084854D+00 EUMP2 =    -0.26491139319033D+04
 SCF Done:  E(RHF) =  -2648.59531837     A.U. after   10 cycles
 E2 =    -0.5161692086D+00 EUMP2 =    -0.26491114875794D+04
 SCF Done:  E(RHF) =  -2648.59540254     A.U. after    7 cycles
 E2 =    -0.5160877334D+00 EUMP2 =    -0.26491114902704D+04
    -- Stationary point found.
 SCF Done:  E(RHF) =  -2648.59314433     A.U. after   10 cycles
 E2 =    -0.5158950958D+00 EUMP2 =    -0.26491090394248D+04
 SCF Done:  E(RHF) =  -2648.59320990     A.U. after    7 cycles
 E2 =    -0.5158312813D+00 EUMP2 =    -0.26491090411817D+04
 Optimization completed.
    -- Stationary point found.

                         Standard orientation:
 ---------------------------------------------------------------------
 Center     Atomic      Atomic             Coordinates (Angstroms)
 Number     Number       Type             X           Y           Z
 ---------------------------------------------------------------------
      1          8           0       -2.539753    0.087221    0.082040
      2          1           0       -2.765361   -0.826070   -0.113187
      3         35           0        0.714668   -0.002859    0.003302
      4          1           0       -1.930012    0.228352   -0.658695
 ---------------------------------------------------------------------

 The electronic state is 1-A.
 Alpha  occ. eigenvalues -- -489.72556 -64.86576 -58.22026 -58.22024 -58.22018
 Alpha  occ. eigenvalues --  -20.40738  -9.53822  -7.14576  -7.14563  -7.14538
 Alpha  occ. eigenvalues --   -2.88753  -2.88752  -2.88717  -2.88702  -2.88694
 Alpha  occ. eigenvalues --   -1.19248  -0.69383  -0.53780  -0.43799  -0.35104
 Alpha  occ. eigenvalues --   -0.14792  -0.14614  -0.14379
 Alpha virt. eigenvalues --    0.13509   0.16185   0.23846   0.24421   0.25704
 Alpha virt. eigenvalues --    0.26714   0.28392   0.29882   0.32598   0.36093
 Alpha virt. eigenvalues --    0.37260   0.38727   0.42191   0.45468   0.47864

 Mulliken charges:
               1
     1  O   -0.443754
     2  H    0.188432
     3  Br  -0.971703
     4  H    0.227025
 Sum of Mulliken charges =  -1.00000

 Dipole moment (field-independent basis, Debye):
    X=             -2.1337    Y=             -1.1072    Z=             -1.0390  Tot=              2.6188
 Quadrupole moment (field-independent basis, Debye-Ang):
   XX=            -39.2246   YY=            -29.9244   ZZ=            -30.8010
   XY=              3.9629   XZ=              2.5451   YZ=             -0.1470

 Normal termination of Gaussian 16 at Tue Oct 19 16:15:06 2021.
