 Gaussian 16, Revision B.01,
 Gaussian 16:  ES64L-G16RevB.01 20-Dec-2017

 ----------------------------------------------------
 #p pop=NBO SP NoSymm mp2/aug-cc-pvtz density=current
 ----------------------------------------------------

 -----
 title
 -----
 Symbolic Z-matrix:
 Charge = -1 Multiplicity = 1

                          Input orientation:
 ---------------------------------------------------------------------
 Center     Atomic      Atomic             Coordinates (Angstroms)
 Number     Number       Type             X           Y           Z
 ---------------------------------------------------------------------
      1          8           0        0.000000    0.000000    0.000000
      2          1           0        0.960788    0.000000    0.000000
      3         35           0       -0.662564   -3.188507    0.000000
      4          1           0       -0.139712   -0.672344    0.686707
 ---------------------------------------------------------------------

 SCF Done:  E(RHF) =  -2648.59540276     A.U. after   11 cycles
 E2 =    -0.5160875016D+00 EUMP2 =    -0.26491114902655D+04

 Alpha  occ. eigenvalues -- -489.72759 -64.86779 -58.22229 -58.22227 -58.22221
 Alpha  occ. eigenvalues --  -20.40500  -9.54024  -7.14779  -7.14765  -7.14741
 Alpha  occ. eigenvalues --   -2.88955  -2.88954  -2.88921  -2.88904  -2.88897
 Alpha  occ. eigenvalues --   -1.18968  -0.69616  -0.53716  -0.43488  -0.34895
 Alpha  occ. eigenvalues --   -0.15032  -0.14816  -0.14606
 Alpha virt. eigenvalues --    0.13524   0.16393   0.23794   0.24360   0.25615
 Alpha virt. eigenvalues --    0.26830   0.28298   0.29912   0.32947   0.36100
 Alpha virt. eigenvalues --    0.37632   0.38952   0.42110   0.45562   0.47871

 Mulliken charges:
               1
     1  O   -0.450301
     2  H    0.186533
     3  Br  -0.965454
     4  H    0.229222
 Sum of Mulliken charges =  -1.00000

 Dipole moment (field-independent basis, Debye):
    X=              4.1145    Y=             13.5416    Z=              0.6560  Tot=             14.1681
 Quadrupole moment (field-independent basis, Debye-Ang):
   XX=            -31.3789   YY=            -78.7074   ZZ=            -30.7873
   XY=             -9.2645   XZ=             -0.2094   YZ=             -0.3231

 Summary of Natural Population Analysis:

                                       Natural Population
                Natural  -----------------------------------------------
    Atom  No    Charge         Core      Valence    Rydberg      Total
 -----------------------------------------------------------------------
      O    1   -0.94331      1.99968     6.83502    0.10862     8.94331
      H    2    0.44543      0.00000     0.54786    0.00672     0.55457
     Br    3   -0.98377     27.98852     7.83303    0.16222    35.98377
      H    4    0.48166      0.00000     0.50086    0.01748     0.51834
 =======================================================================
   * Total *   -1.00000     29.98820    15.71677    0.29504    46.00000

 Normal termination of Gaussian 16 at Tue Oct 19 16:42:03 2021.
