 Gaussian 16, Revision B.01,
 Gaussian 16:  ES64L-G16RevB.01 20-Dec-2017

 ----------------------------------------------------
 #p pop=NBO SP NoSymm mp2/aug-cc-pvtz density=current
 ----------------------------------------------------

 -----
 title
 -----
 Symbolic Z-matrix:
 Charge = -1 Multiplicity = 1

                          Input orientation:
 ---------------------------------------------------------------------
 Center     Atomic      Atomic             Coordinates (Angstroms)
 Number     Number       Type             X           Y           Z
 ---------------------------------------------------------------------
      1          8           0        0.000000    0.000000    0.000000
      2          1           0        0.960788    0.000000    0.000000
      3         35           0       -0.662564   -3.188507    0.000000
      4          1           0       -0.200130   -0.963099    0.086060
 ---------------------------------------------------------------------

 SCF Done:  E(RHF) =  -2648.60702282     A.U. after   11 cycles
 E2 =    -0.5189184241D+00 EUMP2 =    -0.26491259412446D+04

 Alpha  occ. eigenvalues -- -489.74040 -64.88065 -58.23514 -58.23513 -58.23512
 Alpha  occ. eigenvalues --  -20.38877  -9.55311  -7.16068  -7.16046  -7.16041
 Alpha  occ. eigenvalues --   -2.90233  -2.90225  -2.90220  -2.90197  -2.90197
 Alpha  occ. eigenvalues --   -1.17000  -0.71195  -0.52720  -0.41596  -0.33350
 Alpha  occ. eigenvalues --   -0.16623  -0.16099  -0.16052
 Alpha virt. eigenvalues --    0.13587   0.17386   0.23378   0.24172   0.24865
 Alpha virt. eigenvalues --    0.27541   0.29438   0.29919   0.34045   0.34890
 Alpha virt. eigenvalues --    0.39856   0.41047   0.41644   0.46301   0.48145

 Mulliken charges:
               1
     1  O   -0.535049
     2  H    0.167909
     3  Br  -0.922407
     4  H    0.289546
 Sum of Mulliken charges =  -1.00000

 Dipole moment (field-independent basis, Debye):
    X=              3.8839    Y=             12.4025    Z=              0.0626  Tot=             12.9966
 Quadrupole moment (field-independent basis, Debye-Ang):
   XX=            -30.8708   YY=            -74.1496   ZZ=            -31.6771
   XY=             -8.3818   XZ=             -0.0265   YZ=             -0.0474

 Summary of Natural Population Analysis:

                                       Natural Population
                Natural  -----------------------------------------------
    Atom  No    Charge         Core      Valence    Rydberg      Total
 -----------------------------------------------------------------------
      O    1   -0.98728      1.99967     6.88496    0.10265     8.98728
      H    2    0.43888      0.00000     0.54904    0.01207     0.56112
     Br    3   -0.94018     27.98838     7.79613    0.15566    35.94018
      H    4    0.48857      0.00000     0.49015    0.02128     0.51143
 =======================================================================
   * Total *   -1.00000     29.98806    15.72029    0.29165    46.00000

 Normal termination of Gaussian 16 at Tue Oct 19 16:40:21 2021.
