 Gaussian 16, Revision B.01,
 Gaussian 16:  ES64L-G16RevB.01 20-Dec-2017

 ----------------------------------------------------
 #p pop=NBO SP NoSymm mp2/aug-cc-pvtz density=current
 ----------------------------------------------------

 -----
 title
 -----
 Symbolic Z-matrix:
 Charge = -1 Multiplicity = 1

                          Input orientation:
 ---------------------------------------------------------------------
 Center     Atomic      Atomic             Coordinates (Angstroms)
 Number     Number       Type             X           Y           Z
 ---------------------------------------------------------------------
      1          8           0        0.000000    0.000000    0.000000
      2          1           0        0.960616    0.000000    0.000000
      3         17           0       -0.627430   -3.025169    0.000000
      4          1           0       -0.264006   -1.272910    0.000000
 ---------------------------------------------------------------------

 SCF Done:  E(RHF) =  -535.605915571     A.U. after   11 cycles
 E2 =    -0.4990221834D+00 EUMP2 =    -0.53610493775465D+03

 Alpha  occ. eigenvalues -- -104.56301 -20.33961 -10.28744  -7.75366  -7.75336
 Alpha  occ. eigenvalues --   -7.75335  -1.07279  -0.80182  -0.42764  -0.34793
 Alpha  occ. eigenvalues --   -0.26942  -0.20757  -0.20659  -0.20148
 Alpha virt. eigenvalues --    0.14724   0.17921   0.25393   0.26486   0.26935
 Alpha virt. eigenvalues --    0.29301   0.31508   0.32383   0.36561   0.37541
 Alpha virt. eigenvalues --    0.42587   0.43413   0.44291   0.50486   0.50570

 Mulliken charges:
               1
     1  O   -0.645104
     2  H    0.149959
     3  Cl  -0.750613
     4  H    0.245758
 Sum of Mulliken charges =  -1.00000

 Dipole moment (field-independent basis, Debye):
    X=              3.0924    Y=              9.2054    Z=              0.0000  Tot=              9.7109
 Quadrupole moment (field-independent basis, Debye-Ang):
   XX=            -23.7849   YY=            -55.5558   ZZ=            -25.1061
   XY=             -6.0614   XZ=             -0.0000   YZ=             -0.0000

 Summary of Natural Population Analysis:

                                       Natural Population
                Natural  -----------------------------------------------
    Atom  No    Charge         Core      Valence    Rydberg      Total
 -----------------------------------------------------------------------
      O    1   -1.07880      1.99971     6.96724    0.11185     9.07880
      H    2    0.42263      0.00000     0.56244    0.01493     0.57737
     Cl    3   -0.77429      9.99995     7.63098    0.14336    17.77429
      H    4    0.43035      0.00000     0.54860    0.02105     0.56965
 =======================================================================
   * Total *   -1.00012     11.99966    15.70927    0.29118    28.00012

 Normal termination of Gaussian 16 at Fri Oct  8 13:09:01 2021.
