 Gaussian 16, Revision B.01,
 Gaussian 16:  ES64L-G16RevB.01 20-Dec-2017

 ----------------------------------------------------
 #p pop=NBO SP NoSymm mp2/aug-cc-pvtz density=current
 ----------------------------------------------------

 -----
 title
 -----
 Symbolic Z-matrix:
 Charge = -1 Multiplicity = 1

                          Input orientation:
 ---------------------------------------------------------------------
 Center     Atomic      Atomic             Coordinates (Angstroms)
 Number     Number       Type             X           Y           Z
 ---------------------------------------------------------------------
      1          8           0        0.000000    0.000000    0.000000
      2          1           0        0.960616    0.000000    0.000000
      3         17           0       -0.627430   -3.025169    0.000000
      4          1           0       -0.213235   -1.028120    0.000000
 ---------------------------------------------------------------------

 SCF Done:  E(RHF) =  -535.645471837     A.U. after   11 cycles
 E2 =    -0.4865581347D+00 EUMP2 =    -0.53613202997125D+03

 Alpha  occ. eigenvalues -- -104.53418 -20.37433 -10.25868  -7.72479  -7.72470
 Alpha  occ. eigenvalues --   -7.72469  -1.14079  -0.77010  -0.49747  -0.39536
 Alpha  occ. eigenvalues --   -0.31456  -0.18575  -0.18149  -0.18100
 Alpha virt. eigenvalues --    0.13988   0.18200   0.25617   0.26728   0.27521
 Alpha virt. eigenvalues --    0.28808   0.30630   0.31269   0.35423   0.39372
 Alpha virt. eigenvalues --    0.41426   0.42126   0.43557   0.49983   0.54732

 Mulliken charges:
               1
     1  O   -0.573678
     2  H    0.164482
     3  Cl  -0.890214
     4  H    0.299410
 Sum of Mulliken charges =  -1.00000

 Dipole moment (field-independent basis, Debye):
    X=              3.6153    Y=             11.1872    Z=             -0.0000  Tot=             11.7568
 Quadrupole moment (field-independent basis, Debye-Ang):
   XX=            -24.0921   YY=            -61.8264   ZZ=            -25.1409
   XY=             -7.2697   XZ=             -0.0000   YZ=              0.0000

 Summary of Natural Population Analysis:

                                       Natural Population
                Natural  -----------------------------------------------
    Atom  No    Charge         Core      Valence    Rydberg      Total
 -----------------------------------------------------------------------
      O    1   -1.01475      1.99969     6.91058    0.10448     9.01475
      H    2    0.43496      0.00000     0.55241    0.01263     0.56504
     Cl    3   -0.91054     10.00007     7.76338    0.14709    17.91054
      H    4    0.49033      0.00000     0.48803    0.02164     0.50967
 =======================================================================
   * Total *   -1.00001     11.99976    15.71441    0.28584    28.00001

 Normal termination of Gaussian 16 at Fri Oct  8 13:08:08 2021.
