 Gaussian 16, Revision B.01,
 Gaussian 16:  ES64L-G16RevB.01 20-Dec-2017

 -------------------------------------------------
 #p opt=(z-matrix) mp2/aug-cc-pvtz density=current
 -------------------------------------------------

 -----
 title
 -----
 Symbolic Z-matrix:
 Charge = -1 Multiplicity = 1

 SCF Done:  E(RHF) =  -534.884214134     A.U. after   11 cycles
 E2 =    -0.4646165796D+00 EUMP2 =    -0.53534883071403D+03
 Optimization completed.
    -- Stationary point found.
 SCF Done:  E(RHF) =  -535.142114986     A.U. after    9 cycles
 E2 =    -0.4656048869D+00 EUMP2 =    -0.53560771987243D+03
 Optimization completed.
 SCF Done:  E(RHF) =  -535.319923712     A.U. after    9 cycles
 E2 =    -0.4669089415D+00 EUMP2 =    -0.53578683265400D+03
 SCF Done:  E(RHF) =  -535.442021267     A.U. after   10 cycles
 E2 =    -0.4684701143D+00 EUMP2 =    -0.53591049138160D+03
 SCF Done:  E(RHF) =  -535.524933400     A.U. after   10 cycles
 E2 =    -0.4702415463D+00 EUMP2 =    -0.53599517494581D+03
 SCF Done:  E(RHF) =  -535.580041974     A.U. after    9 cycles
 E2 =    -0.4721909890D+00 EUMP2 =    -0.53605223296337D+03
 SCF Done:  E(RHF) =  -535.615310029     A.U. after    9 cycles
 E2 =    -0.4742973381D+00 EUMP2 =    -0.53608960736712D+03
 SCF Done:  E(RHF) =  -535.636393347     A.U. after    9 cycles
 E2 =    -0.4765445789D+00 EUMP2 =    -0.53611293792549D+03
 SCF Done:  E(RHF) =  -535.647361784     A.U. after    9 cycles
 E2 =    -0.4789162575D+00 EUMP2 =    -0.53612627804196D+03
 SCF Done:  E(RHF) =  -535.651175467     A.U. after    9 cycles
 E2 =    -0.4813922280D+00 EUMP2 =    -0.53613256769497D+03
 E2 =    -0.4839484586D+00 EUMP2 =    -0.53613395646958D+03
 E2 =    -0.4865581346D+00 EUMP2 =    -0.53613202997113D+03
 E2 =    -0.4891908873D+00 EUMP2 =    -0.53612796832418D+03
 E2 =    -0.4918092683D+00 EUMP2 =    -0.53612265459909D+03
 E2 =    -0.4943644503D+00 EUMP2 =    -0.53611674729022D+03
 E2 =    -0.4967938072D+00 EUMP2 =    -0.53611072861840D+03
 E2 =    -0.4990221874D+00 EUMP2 =    -0.53610493775872D+03
 E2 =    -0.5009678880D+00 EUMP2 =    -0.53609959569056D+03
 E2 =    -0.5025531590D+00 EUMP2 =    -0.53609482575694D+03
 E2 =    -0.5037174629D+00 EUMP2 =    -0.53609067122015D+03
 E2 =    -0.5044300486D+00 EUMP2 =    -0.53608710849545D+03
 SCF Done:  E(RHF) =  -535.579355629     A.U. after   11 cycles
 E2 =    -0.5046977171D+00 EUMP2 =    -0.53608405334622D+03
 SCF Done:  E(RHF) =  -535.576793085     A.U. after   11 cycles
 E2 =    -0.5045648035D+00 EUMP2 =    -0.53608135788846D+03
 SCF Done:  E(RHF) =  -535.574693268     A.U. after   11 cycles
 E2 =    -0.5041050751D+00 EUMP2 =    -0.53607879834326D+03
 SCF Done:  E(RHF) =  -535.572647512     A.U. after   11 cycles
 E2 =    -0.5034083042D+00 EUMP2 =    -0.53607605581584D+03
 SCF Done:  E(RHF) =  -535.570127265     A.U. after   11 cycles
 E2 =    -0.5025659543D+00 EUMP2 =    -0.53607269321945D+03
 SCF Done:  E(RHF) =  -535.566470149     A.U. after   11 cycles
 E2 =    -0.5016600502D+00 EUMP2 =    -0.53606813019898D+03
 SCF Done:  E(RHF) =  -535.560857783     A.U. after   11 cycles
 E2 =    -0.5007572905D+00 EUMP2 =    -0.53606161507364D+03
 SCF Done:  E(RHF) =  -535.552281667     A.U. after   11 cycles
 E2 =    -0.4999080089D+00 EUMP2 =    -0.53605218967602D+03
 SCF Done:  E(RHF) =  -535.539492983     A.U. after   11 cycles
 E2 =    -0.4991478457D+00 EUMP2 =    -0.53603864082915D+03
    -- Stationary point found.
 SCF Done:  E(RHF) =  -535.520932103     A.U. after   11 cycles
 E2 =    -0.4984998674D+00 EUMP2 =    -0.53601943197032D+03
 Optimization completed.
    -- Stationary point found.

                         Standard orientation:
 ---------------------------------------------------------------------
 Center     Atomic      Atomic             Coordinates (Angstroms)
 Number     Number       Type             X           Y           Z
 ---------------------------------------------------------------------
      1          8           0        0.034837    2.012121   -0.000000
      2          1           0       -0.905762    2.207204    0.000000
      3         17           0        0.034837   -1.077429   -0.000000
      4          1           0        0.034837    0.012121   -0.000000
 ---------------------------------------------------------------------

 The electronic state is 1-A'.
 Alpha  occ. eigenvalues -- -104.64853 -20.21396 -10.38204  -7.85002  -7.84672
 Alpha  occ. eigenvalues --   -7.84672  -0.97343  -0.93585  -0.47574  -0.30317
 Alpha  occ. eigenvalues --   -0.30190  -0.28345  -0.14557  -0.14184
 Alpha virt. eigenvalues --    0.15761   0.16971   0.23818   0.24078   0.24471
 Alpha virt. eigenvalues --    0.31212   0.33403   0.36186   0.36425   0.40283
 Alpha virt. eigenvalues --    0.45530   0.46805   0.47419   0.48679   0.50234

 Mulliken charges:
               1
     1  O   -1.035183
     2  H    0.075789
     3  Cl  -0.560731
     4  H    0.520124
 Sum of Mulliken charges =  -1.00000

 Dipole moment (field-independent basis, Debye):
    X=             -1.0158    Y=             -6.7653    Z=             -0.0000  Tot=              6.8412
 Quadrupole moment (field-independent basis, Debye-Ang):
   XX=            -22.2747   YY=            -43.3278   ZZ=            -24.8786
   XY=             -2.5632   XZ=              0.0000   YZ=              0.0000

 Normal termination of Gaussian 16 at Mon Nov 15 15:05:11 2021.
