 Gaussian 16, Revision B.01,
 Gaussian 16:  ES64L-G16RevB.01 20-Dec-2017

 ----------------------------------------------------
 #p pop=NBO SP NoSymm mp2/aug-cc-pvtz density=current
 ----------------------------------------------------

 -----
 title
 -----
 Symbolic Z-matrix:
 Charge = -1 Multiplicity = 1

                          Input orientation:
 ---------------------------------------------------------------------
 Center     Atomic      Atomic             Coordinates (Angstroms)
 Number     Number       Type             X           Y           Z
 ---------------------------------------------------------------------
      1          8           0        0.000000    0.000000    0.000000
      2          1           0        0.960616    0.000000    0.000000
      3         17           0       -0.627430   -3.025169    0.000000
      4          1           0       -0.152311   -0.734371    0.000000
 ---------------------------------------------------------------------

 SCF Done:  E(RHF) =  -535.580041974     A.U. after   10 cycles
 E2 =    -0.4721909878D+00 EUMP2 =    -0.53605223296218D+03

 Alpha  occ. eigenvalues -- -104.51929 -20.37251 -10.24354  -7.70961  -7.70960
 Alpha  occ. eigenvalues --   -7.70959  -1.25289  -0.75189  -0.59970  -0.43860
 Alpha  occ. eigenvalues --   -0.35017  -0.17083  -0.16641  -0.16605
 Alpha virt. eigenvalues --    0.13519   0.18067   0.25798   0.26376   0.27565
 Alpha virt. eigenvalues --    0.28753   0.29935   0.30500   0.34582   0.39857
 Alpha virt. eigenvalues --    0.41216   0.41756   0.43077   0.50082   0.54707

 Mulliken charges:
               1
     1  O   -0.328323
     2  H    0.184337
     3  Cl  -0.973560
     4  H    0.117545
 Sum of Mulliken charges =  -1.00000

 Dipole moment (field-independent basis, Debye):
    X=              3.9828    Y=             12.4367    Z=              0.0000  Tot=             13.0589
 Quadrupole moment (field-independent basis, Debye-Ang):
   XX=            -24.0684   YY=            -65.4751   ZZ=            -24.9612
   XY=             -7.9934   XZ=              0.0000   YZ=             -0.0000

 Summary of Natural Population Analysis:

                                       Natural Population
                Natural  -----------------------------------------------
    Atom  No    Charge         Core      Valence    Rydberg      Total
 -----------------------------------------------------------------------
      O    1   -0.86830      1.99949     6.77083    0.09798     8.86830
      H    2    0.43272      0.00000     0.55506    0.01223     0.56728
     Cl    3   -0.98320     10.00008     7.83124    0.15188    17.98320
      H    4    0.41878      0.00000     0.55966    0.02156     0.58122
 =======================================================================
   * Total *   -1.00000     11.99957    15.71679    0.28364    28.00000

 Normal termination of Gaussian 16 at Fri Oct  8 13:07:07 2021.
