 Gaussian 16, Revision B.01,
 Gaussian 16:  ES64L-G16RevB.01 20-Dec-2017

 ----------------------------------------------------
 #p pop=NBO SP NoSymm mp2/aug-cc-pvtz density=current
 ----------------------------------------------------

 -----
 title
 -----
 Symbolic Z-matrix:
 Charge = -1 Multiplicity = 1

                          Input orientation:
 ---------------------------------------------------------------------
 Center     Atomic      Atomic             Coordinates (Angstroms)
 Number     Number       Type             X           Y           Z
 ---------------------------------------------------------------------
      1          8           0        0.000000    0.000000    0.000000
      2          1           0        0.960616    0.000000    0.000000
      3         17           0       -0.627430   -3.025169    0.000000
      4          1           0       -0.182773   -0.881246    0.000000
 ---------------------------------------------------------------------

 SCF Done:  E(RHF) =  -535.647361784     A.U. after   11 cycles
 E2 =    -0.4789162556D+00 EUMP2 =    -0.53612627804010D+03

 Alpha  occ. eigenvalues -- -104.52483 -20.37873 -10.24923  -7.71531  -7.71528
 Alpha  occ. eigenvalues --   -7.71527  -1.18906  -0.75904  -0.54686  -0.42008
 Alpha  occ. eigenvalues --   -0.33406  -0.17715  -0.17234  -0.17191
 Alpha virt. eigenvalues --    0.13708   0.18186   0.25712   0.26618   0.27598
 Alpha virt. eigenvalues --    0.28758   0.30295   0.30829   0.34959   0.39952
 Alpha virt. eigenvalues --    0.41321   0.41604   0.43226   0.49880   0.55190

 Mulliken charges:
               1
     1  O   -0.474837
     2  H    0.169148
     3  Cl  -0.941326
     4  H    0.247015
 Sum of Mulliken charges =  -1.00000

 Dipole moment (field-independent basis, Debye):
    X=              3.8271    Y=             11.9404    Z=             -0.0000  Tot=             12.5387
 Quadrupole moment (field-independent basis, Debye-Ang):
   XX=            -24.1309   YY=            -64.1125   ZZ=            -25.0822
   XY=             -7.7174   XZ=              0.0000   YZ=              0.0000

 Summary of Natural Population Analysis:

                                       Natural Population
                Natural  -----------------------------------------------
    Atom  No    Charge         Core      Valence    Rydberg      Total
 -----------------------------------------------------------------------
      O    1   -0.95680      1.99963     6.85683    0.10034     8.95680
      H    2    0.43661      0.00000     0.55122    0.01216     0.56339
     Cl    3   -0.95987     10.00009     7.81022    0.14956    17.95987
      H    4    0.48006      0.00000     0.49868    0.02126     0.51994
 =======================================================================
   * Total *   -1.00000     11.99972    15.71696    0.28332    28.00000

 Normal termination of Gaussian 16 at Fri Oct  8 13:07:37 2021.
