 Gaussian 16, Revision B.01,
 Gaussian 16:  ES64L-G16RevB.01 20-Dec-2017

 ----------------------------------------------------
 #p pop=NBO SP NoSymm mp2/aug-cc-pvtz density=current
 ----------------------------------------------------

 -----
 title
 -----
 Symbolic Z-matrix:
 Charge = -1 Multiplicity = 1

                          Input orientation:
 ---------------------------------------------------------------------
 Center     Atomic      Atomic             Coordinates (Angstroms)
 Number     Number       Type             X           Y           Z
 ---------------------------------------------------------------------
      1          8           0        0.000000    0.000000    0.000000
      2          1           0        0.960616    0.000000    0.000000
      3         17           0       -0.627430   -3.025169    0.000000
      4          1           0       -0.203081   -0.979162    0.000000
 ---------------------------------------------------------------------

 SCF Done:  E(RHF) =  -535.650008011     A.U. after   11 cycles
 E2 =    -0.4839484577D+00 EUMP2 =    -0.53613395646874D+03

 Alpha  occ. eigenvalues -- -104.53052 -20.37713 -10.25500  -7.72110  -7.72103
 Alpha  occ. eigenvalues --   -7.72102  -1.15571  -0.76587  -0.51330  -0.40434
 Alpha  occ. eigenvalues --   -0.32157  -0.18263  -0.17800  -0.17753
 Alpha virt. eigenvalues --    0.13883   0.18208   0.25646   0.26709   0.27567
 Alpha virt. eigenvalues --    0.28777   0.30520   0.31107   0.35252   0.39646
 Alpha virt. eigenvalues --    0.41307   0.41934   0.43434   0.49917   0.55251

 Mulliken charges:
               1
     1  O   -0.551325
     2  H    0.165298
     3  Cl  -0.909487
     4  H    0.295514
 Sum of Mulliken charges =  -1.00000

 Dipole moment (field-independent basis, Debye):
    X=              3.6936    Y=             11.4720    Z=             -0.0000  Tot=             12.0520
 Quadrupole moment (field-independent basis, Debye-Ang):
   XX=            -24.1175   YY=            -62.7071   ZZ=            -25.1288
   XY=             -7.4410   XZ=              0.0000   YZ=              0.0000

 Summary of Natural Population Analysis:

                                       Natural Population
                Natural  -----------------------------------------------
    Atom  No    Charge         Core      Valence    Rydberg      Total
 -----------------------------------------------------------------------
      O    1   -0.99786      1.99967     6.89521    0.10298     8.99786
      H    2    0.43610      0.00000     0.55150    0.01241     0.56390
     Cl    3   -0.93015     10.00008     7.78217    0.14789    17.93015
      H    4    0.49190      0.00000     0.48656    0.02154     0.50810
 =======================================================================
   * Total *   -1.00000     11.99976    15.71543    0.28481    28.00000

 Normal termination of Gaussian 16 at Fri Oct  8 13:07:56 2021.
