 Gaussian 16, Revision B.01,
 Gaussian 16:  ES64L-G16RevB.01 20-Dec-2017

 ----------------------------------------------------
 #p pop=NBO SP NoSymm mp2/aug-cc-pvtz density=current
 ----------------------------------------------------

 -----
 title
 -----
 Symbolic Z-matrix:
 Charge = -1 Multiplicity = 1

                          Input orientation:
 ---------------------------------------------------------------------
 Center     Atomic      Atomic             Coordinates (Angstroms)
 Number     Number       Type             X           Y           Z
 ---------------------------------------------------------------------
      1          8           0        0.000000    0.000000    0.000000
      2          1           0        0.960616    0.000000    0.000000
      3         17           0       -0.627430   -3.025169    0.000000
      4          1           0       -0.233544   -1.126036    0.000000
 ---------------------------------------------------------------------

 SCF Done:  E(RHF) =  -535.630845331     A.U. after   11 cycles
 E2 =    -0.4918092660D+00 EUMP2 =    -0.53612265459678D+03

 Alpha  occ. eigenvalues -- -104.54346 -20.36451 -10.26798  -7.73412  -7.73396
 Alpha  occ. eigenvalues --   -7.73395  -1.11291  -0.78051  -0.46784  -0.37581
 Alpha  occ. eigenvalues --   -0.29861  -0.19256  -0.19007  -0.18951
 Alpha virt. eigenvalues --    0.14239   0.18140   0.25557   0.26705   0.27357
 Alpha virt. eigenvalues --    0.28931   0.30888   0.31649   0.35825   0.38692
 Alpha virt. eigenvalues --    0.41815   0.42573   0.43834   0.50182   0.53028

 Mulliken charges:
               1
     1  O   -0.600790
     2  H    0.161575
     3  Cl  -0.843425
     4  H    0.282640
 Sum of Mulliken charges =  -1.00000

 Dipole moment (field-independent basis, Debye):
    X=              3.4324    Y=             10.5047    Z=              0.0000  Tot=             11.0513
 Quadrupole moment (field-independent basis, Debye-Ang):
   XX=            -24.0030   YY=            -59.6801   ZZ=            -25.1433
   XY=             -6.8552   XZ=             -0.0000   YZ=             -0.0000

 Summary of Natural Population Analysis:

                                       Natural Population
                Natural  -----------------------------------------------
    Atom  No    Charge         Core      Valence    Rydberg      Total
 -----------------------------------------------------------------------
      O    1   -1.04287      1.99970     6.93569    0.10748     9.04287
      H    2    0.43113      0.00000     0.55555    0.01331     0.56887
     Cl    3   -0.86272     10.00004     7.71709    0.14560    17.86272
      H    4    0.47442      0.00000     0.50400    0.02158     0.52558
 =======================================================================
   * Total *   -1.00004     11.99974    15.71232    0.28798    28.00004

 Normal termination of Gaussian 16 at Fri Oct  8 13:08:30 2021.
