 Gaussian 16, Revision B.01,
 Gaussian 16:  ES64L-G16RevB.01 20-Dec-2017

 ----------------------------------------------------
 #p pop=NBO SP NoSymm mp2/aug-cc-pvtz density=current
 ----------------------------------------------------

 -----
 title
 -----
 Symbolic Z-matrix:
 Charge = -1 Multiplicity = 1

                          Input orientation:
 ---------------------------------------------------------------------
 Center     Atomic      Atomic             Coordinates (Angstroms)
 Number     Number       Type             X           Y           Z
 ---------------------------------------------------------------------
      1          8           0        0.000000    0.000000    0.000000
      2          1           0        0.960616    0.000000    0.000000
      3         17           0       -0.627430   -3.025169    0.000000
      4          1           0       -0.304622   -1.468743    0.000000
 ---------------------------------------------------------------------

 SCF Done:  E(RHF) =  -535.582678447     A.U. after   12 cycles
 E2 =    -0.5044300459D+00 EUMP2 =    -0.53608710849281D+03

 Alpha  occ. eigenvalues -- -104.59734 -20.29386 -10.32172  -7.78812  -7.78754
 Alpha  occ. eigenvalues --   -7.78753  -1.02047  -0.84081  -0.38598  -0.33332
 Alpha  occ. eigenvalues --   -0.24060  -0.23788  -0.21928  -0.19698
 Alpha virt. eigenvalues --    0.15507   0.17379   0.24946   0.25874   0.26150
 Alpha virt. eigenvalues --    0.30098   0.32841   0.33618   0.36015   0.37750
 Alpha virt. eigenvalues --    0.43720   0.44736   0.44851   0.49293   0.50459

 Mulliken charges:
               1
     1  O   -0.755400
     2  H    0.124073
     3  Cl  -0.600202
     4  H    0.231529
 Sum of Mulliken charges =  -1.00000

 Dipole moment (field-independent basis, Debye):
    X=              2.5541    Y=              7.1192    Z=             -0.0000  Tot=              7.5635
 Quadrupole moment (field-independent basis, Debye-Ang):
   XX=            -23.4097   YY=            -49.0324   ZZ=            -25.0401
   XY=             -4.7972   XZ=             -0.0000   YZ=              0.0000

 Summary of Natural Population Analysis:

                                       Natural Population
                Natural  -----------------------------------------------
    Atom  No    Charge         Core      Valence    Rydberg      Total
 -----------------------------------------------------------------------
      O    1   -1.14137      1.99972     7.02286    0.11880     9.14137
      H    2    0.40917      0.00000     0.57266    0.01816     0.59083
     Cl    3   -0.64241      9.99981     7.50254    0.14006    17.64241
      H    4    0.37428      0.00000     0.60419    0.02153     0.62572
 =======================================================================
   * Total *   -1.00033     11.99953    15.70226    0.29855    28.00033

 Normal termination of Gaussian 16 at Fri Oct  8 13:09:47 2021.
