 Gaussian 16, Revision B.01,
 Gaussian 16:  ES64L-G16RevB.01 20-Dec-2017

 ----------------------------------------------------
 #p pop=NBO SP NoSymm mp2/aug-cc-pvtz density=current
 ----------------------------------------------------

 -----
 title
 -----
 Symbolic Z-matrix:
 Charge = -1 Multiplicity = 1

                          Input orientation:
 ---------------------------------------------------------------------
 Center     Atomic      Atomic             Coordinates (Angstroms)
 Number     Number       Type             X           Y           Z
 ---------------------------------------------------------------------
      1          8           0        0.000000    0.000000    0.000000
      2          1           0        0.960616    0.000000    0.000000
      3         17           0       -0.627430   -3.025169    0.000000
      4          1           0       -0.243698   -1.174994    0.000000
 ---------------------------------------------------------------------

 SCF Done:  E(RHF) =  -535.622382840     A.U. after   11 cycles
 E2 =    -0.4943644477D+00 EUMP2 =    -0.53611674728765D+03

 Alpha  occ. eigenvalues -- -104.54921 -20.35750 -10.27371  -7.73988  -7.73968
 Alpha  occ. eigenvalues --   -7.73967  -1.09946  -0.78681  -0.45394  -0.36583
 Alpha  occ. eigenvalues --   -0.28957  -0.19609  -0.19514  -0.19463
 Alpha virt. eigenvalues --    0.14387   0.18085   0.25516   0.26658   0.27238
 Alpha virt. eigenvalues --    0.29029   0.31057   0.31871   0.36055   0.38317
 Alpha virt. eigenvalues --    0.42055   0.42831   0.43985   0.50295   0.52127

 Mulliken charges:
               1
     1  O   -0.612805
     2  H    0.158732
     3  Cl  -0.815440
     4  H    0.269513
 Sum of Mulliken charges =  -1.00000

 Dipole moment (field-independent basis, Debye):
    X=              3.3274    Y=             10.1063    Z=             -0.0000  Tot=             10.6400
 Quadrupole moment (field-independent basis, Debye-Ang):
   XX=            -23.9403   YY=            -58.4161   ZZ=            -25.1350
   XY=             -6.6120   XZ=             -0.0000   YZ=              0.0000

 Summary of Natural Population Analysis:

                                       Natural Population
                Natural  -----------------------------------------------
    Atom  No    Charge         Core      Valence    Rydberg      Total
 -----------------------------------------------------------------------
      O    1   -1.05501      1.99971     6.94639    0.10892     9.05501
      H    2    0.42859      0.00000     0.55764    0.01377     0.57141
     Cl    3   -0.83512     10.00001     7.69023    0.14488    17.83512
      H    4    0.46148      0.00000     0.51709    0.02143     0.53852
 =======================================================================
   * Total *   -1.00006     11.99972    15.71134    0.28900    28.00006

 Normal termination of Gaussian 16 at Fri Oct  8 13:08:40 2021.
