 Gaussian 16, Revision B.01,
 Gaussian 16:  ES64L-G16RevB.01 20-Dec-2017

 ----------------------------------------------------
 #p pop=NBO SP NoSymm mp2/aug-cc-pvtz density=current
 ----------------------------------------------------

 -----
 title
 -----
 Symbolic Z-matrix:
 Charge = -1 Multiplicity = 1

                          Input orientation:
 ---------------------------------------------------------------------
 Center     Atomic      Atomic             Coordinates (Angstroms)
 Number     Number       Type             X           Y           Z
 ---------------------------------------------------------------------
      1          8           0        0.000000    0.000000    0.000000
      2          1           0        0.960616    0.000000    0.000000
      3         17           0       -0.627430   -3.025169    0.000000
      4          1           0       -0.253852   -1.223952    0.000000
 ---------------------------------------------------------------------

 SCF Done:  E(RHF) =  -535.613934811     A.U. after   11 cycles
 E2 =    -0.4967938041D+00 EUMP2 =    -0.53611072861522D+03

 Alpha  occ. eigenvalues -- -104.55573 -20.34916 -10.28020  -7.74639  -7.74615
 Alpha  occ. eigenvalues --   -7.74614  -1.08612  -0.79391  -0.44055  -0.35633
 Alpha  occ. eigenvalues --   -0.27981  -0.20119  -0.20034  -0.19898
 Alpha virt. eigenvalues --    0.14549   0.18012   0.25463   0.26585   0.27097
 Alpha virt. eigenvalues --    0.29152   0.31262   0.32116   0.36301   0.37930
 Alpha virt. eigenvalues --    0.42314   0.43112   0.44138   0.50400   0.51290

 Mulliken charges:
               1
     1  O   -0.627161
     2  H    0.154835
     3  Cl  -0.784402
     4  H    0.256728
 Sum of Mulliken charges =  -1.00000

 Dipole moment (field-independent basis, Debye):
    X=              3.2138    Y=              9.6720    Z=              0.0000  Tot=             10.1919
 Quadrupole moment (field-independent basis, Debye-Ang):
   XX=            -23.8670   YY=            -57.0361   ZZ=            -25.1221
   XY=             -6.3465   XZ=             -0.0000   YZ=             -0.0000

 Summary of Natural Population Analysis:

                                       Natural Population
                Natural  -----------------------------------------------
    Atom  No    Charge         Core      Valence    Rydberg      Total
 -----------------------------------------------------------------------
      O    1   -1.06675      1.99971     6.95668    0.11036     9.06675
      H    2    0.42573      0.00000     0.55996    0.01431     0.57427
     Cl    3   -0.80550      9.99998     7.66139    0.14414    17.80550
      H    4    0.44644      0.00000     0.53233    0.02123     0.55356
 =======================================================================
   * Total *   -1.00008     11.99969    15.71036    0.29004    28.00008

 Normal termination of Gaussian 16 at Fri Oct  8 13:08:50 2021.
