 Gaussian 16, Revision B.01,
 Gaussian 16:  ES64L-G16RevB.01 20-Dec-2017

 ----------------------------------------------------
 #p pop=NBO SP NoSymm mp2/aug-cc-pvtz density=current
 ----------------------------------------------------

 -----
 title
 -----
 Symbolic Z-matrix:
 Charge = -1 Multiplicity = 1

                          Input orientation:
 ---------------------------------------------------------------------
 Center     Atomic      Atomic             Coordinates (Angstroms)
 Number     Number       Type             X           Y           Z
 ---------------------------------------------------------------------
      1          8           0        0.000000    0.000000    0.000000
      2          1           0        0.960616    0.000000    0.000000
      3         17           0       -0.627430   -3.025169    0.000000
      4          1           0       -0.274160   -1.321869    0.000000
 ---------------------------------------------------------------------

 SCF Done:  E(RHF) =  -535.598627803     A.U. after   11 cycles
 E2 =    -0.5009678828D+00 EUMP2 =    -0.53609959568538D+03

 Alpha  occ. eigenvalues -- -104.57096 -20.32903 -10.29535  -7.76161  -7.76125
 Alpha  occ. eigenvalues --   -7.76124  -1.05947  -0.81053  -0.41530  -0.34125
 Alpha  occ. eigenvalues --   -0.25857  -0.21455  -0.21325  -0.20284
 Alpha virt. eigenvalues --    0.14911   0.17810   0.25306   0.26363   0.26755
 Alpha virt. eigenvalues --    0.29474   0.31793   0.32671   0.36816   0.37172
 Alpha virt. eigenvalues --    0.42869   0.43732   0.44437   0.50003   0.50541

 Mulliken charges:
               1
     1  O   -0.667110
     2  H    0.144249
     3  Cl  -0.714591
     4  H    0.237453
 Sum of Mulliken charges =  -1.00000

 Dipole moment (field-independent basis, Debye):
    X=              2.9644    Y=              8.7114    Z=              0.0000  Tot=              9.2019
 Quadrupole moment (field-independent basis, Debye-Ang):
   XX=            -23.6962   YY=            -53.9949   ZZ=            -25.0886
   XY=             -5.7604   XZ=              0.0000   YZ=             -0.0000

 Summary of Natural Population Analysis:

                                       Natural Population
                Natural  -----------------------------------------------
    Atom  No    Charge         Core      Valence    Rydberg      Total
 -----------------------------------------------------------------------
      O    1   -1.09184      1.99972     6.97871    0.11342     9.09184
      H    2    0.41936      0.00000     0.56501    0.01563     0.58064
     Cl    3   -0.74193      9.99992     7.59947    0.14254    17.74193
      H    4    0.41426      0.00000     0.56480    0.02095     0.58574
 =======================================================================
   * Total *   -1.00015     11.99963    15.70798    0.29254    28.00015

 Normal termination of Gaussian 16 at Fri Oct  8 13:09:12 2021.
