 Gaussian 16, Revision B.01,
 Gaussian 16:  ES64L-G16RevB.01 20-Dec-2017

 ----------------------------------------------------
 #p pop=NBO SP NoSymm mp2/aug-cc-pvtz density=current
 ----------------------------------------------------

 -----
 title
 -----
 Symbolic Z-matrix:
 Charge = -1 Multiplicity = 1

                          Input orientation:
 ---------------------------------------------------------------------
 Center     Atomic      Atomic             Coordinates (Angstroms)
 Number     Number       Type             X           Y           Z
 ---------------------------------------------------------------------
      1          8           0        0.000000    0.000000    0.000000
      2          1           0        0.960616    0.000000    0.000000
      3         17           0       -0.627430   -3.025169    0.000000
      4          1           0       -0.223389   -1.077078    0.000000
 ---------------------------------------------------------------------

 SCF Done:  E(RHF) =  -535.638777437     A.U. after   11 cycles
 E2 =    -0.4891908876D+00 EUMP2 =    -0.53612796832441D+03

 Alpha  occ. eigenvalues -- -104.53847 -20.37013 -10.26298  -7.72911  -7.72899
 Alpha  occ. eigenvalues --   -7.72898  -1.12661  -0.77495  -0.48232  -0.38578
 Alpha  occ. eigenvalues --   -0.30693  -0.18909  -0.18550  -0.18498
 Alpha virt. eigenvalues --    0.14106   0.18178   0.25589   0.26728   0.27451
 Alpha virt. eigenvalues --    0.28858   0.30749   0.31449   0.35615   0.39048
 Alpha virt. eigenvalues --    0.41602   0.42338   0.43691   0.50075   0.53925

 Mulliken charges:
               1
     1  O   -0.588857
     2  H    0.163411
     3  Cl  -0.868296
     4  H    0.293743
 Sum of Mulliken charges =  -1.00000

 Dipole moment (field-independent basis, Debye):
    X=              3.5283    Y=             10.8651    Z=             -0.0000  Tot=             11.4237
 Quadrupole moment (field-independent basis, Debye-Ang):
   XX=            -24.0539   YY=            -60.8181   ZZ=            -25.1455
   XY=             -7.0746   XZ=              0.0000   YZ=              0.0000

 Summary of Natural Population Analysis:

                                       Natural Population
                Natural  -----------------------------------------------
    Atom  No    Charge         Core      Valence    Rydberg      Total
 -----------------------------------------------------------------------
      O    1   -1.02963      1.99969     6.92393    0.10600     9.02963
      H    2    0.43328      0.00000     0.55379    0.01293     0.56672
     Cl    3   -0.88797     10.00006     7.74158    0.14633    17.88797
      H    4    0.48430      0.00000     0.49404    0.02166     0.51570
 =======================================================================
   * Total *   -1.00002     11.99975    15.71335    0.28692    28.00002

 Normal termination of Gaussian 16 at Fri Oct  8 13:08:19 2021.
