 Gaussian 16, Revision B.01,
 Gaussian 16:  ES64L-G16RevB.01 20-Dec-2017

 ----------------------------------------------------
 #p pop=NBO SP NoSymm mp2/aug-cc-pvtz density=current
 ----------------------------------------------------

 -----
 title
 -----
 Symbolic Z-matrix:
 Charge = -1 Multiplicity = 1

                          Input orientation:
 ---------------------------------------------------------------------
 Center     Atomic      Atomic             Coordinates (Angstroms)
 Number     Number       Type             X           Y           Z
 ---------------------------------------------------------------------
      1          8           0        0.000000    0.000000    0.000000
      2          1           0        0.960616    0.000000    0.000000
      3         17           0       -0.627430   -3.025169    0.000000
      4          1           0       -0.284314   -1.370827    0.000000
 ---------------------------------------------------------------------

 SCF Done:  E(RHF) =  -535.592272598     A.U. after   12 cycles
 E2 =    -0.5025531575D+00 EUMP2 =    -0.53609482575541D+03

 Alpha  occ. eigenvalues -- -104.57947 -20.31768 -10.30382  -7.77012  -7.76969
 Alpha  occ. eigenvalues --   -7.76968  -1.04622  -0.81999  -0.40379  -0.33673
 Alpha  occ. eigenvalues --   -0.24777  -0.22202  -0.21991  -0.20265
 Alpha virt. eigenvalues --    0.15106   0.17681   0.25200   0.26218   0.26561
 Alpha virt. eigenvalues --    0.29669   0.32116   0.32976   0.36721   0.37171
 Alpha virt. eigenvalues --    0.43156   0.44064   0.44575   0.49606   0.50558

 Mulliken charges:
               1
     1  O   -0.693133
     2  H    0.137891
     3  Cl  -0.677000
     4  H    0.232243
 Sum of Mulliken charges =  -1.00000

 Dipole moment (field-independent basis, Debye):
    X=              2.8312    Y=              8.1954    Z=              0.0000  Tot=              8.6706
 Quadrupole moment (field-independent basis, Debye-Ang):
   XX=            -23.6029   YY=            -52.3744   ZZ=            -25.0711
   XY=             -5.4469   XZ=             -0.0000   YZ=             -0.0000

 Summary of Natural Population Analysis:

                                       Natural Population
                Natural  -----------------------------------------------
    Atom  No    Charge         Core      Valence    Rydberg      Total
 -----------------------------------------------------------------------
      O    1   -1.10641      1.99972     6.99159    0.11511     9.10641
      H    2    0.41600      0.00000     0.56759    0.01641     0.58400
     Cl    3   -0.70890      9.99988     7.56732    0.14170    17.70890
      H    4    0.39912      0.00000     0.57991    0.02098     0.60088
 =======================================================================
   * Total *   -1.00019     11.99960    15.70641    0.29419    28.00019

 Normal termination of Gaussian 16 at Fri Oct  8 13:09:23 2021.
