 Gaussian 16, Revision B.01,
 Gaussian 16:  ES64L-G16RevB.01 20-Dec-2017

 ----------------------------------------------------
 #p pop=NBO SP NoSymm mp2/aug-cc-pvtz density=current
 ----------------------------------------------------

 -----
 title
 -----
 Symbolic Z-matrix:
 Charge = -1 Multiplicity = 1

                          Input orientation:
 ---------------------------------------------------------------------
 Center     Atomic      Atomic             Coordinates (Angstroms)
 Number     Number       Type             X           Y           Z
 ---------------------------------------------------------------------
      1          8           0        0.000000    0.000000    0.000000
      2          1           0        0.960616    0.000000    0.000000
      3         17           0       -0.627430   -3.025169    0.000000
      4          1           0       -0.294468   -1.419785    0.000000
 ---------------------------------------------------------------------

 SCF Done:  E(RHF) =  -535.586953757     A.U. after   12 cycles
 E2 =    -0.5037174614D+00 EUMP2 =    -0.53609067121862D+03

 Alpha  occ. eigenvalues -- -104.58834 -20.30584 -10.31268  -7.77902  -7.77853
 Alpha  occ. eigenvalues --   -7.77852  -1.03316  -0.83011  -0.39367  -0.33437
 Alpha  occ. eigenvalues --   -0.23931  -0.22985  -0.22436  -0.20067
 Alpha virt. eigenvalues --    0.15306   0.17537   0.25078   0.26053   0.26358
 Alpha virt. eigenvalues --    0.29879   0.32468   0.33293   0.36364   0.37453
 Alpha virt. eigenvalues --    0.43441   0.44401   0.44709   0.49377   0.50531

 Mulliken charges:
               1
     1  O   -0.722778
     2  H    0.131093
     3  Cl  -0.638594
     4  H    0.230278
 Sum of Mulliken charges =  -1.00000

 Dipole moment (field-independent basis, Debye):
    X=              2.6939    Y=              7.6628    Z=             -0.0000  Tot=              8.1226
 Quadrupole moment (field-independent basis, Debye-Ang):
   XX=            -23.5069   YY=            -50.7141   ZZ=            -25.0547
   XY=             -5.1247   XZ=              0.0000   YZ=              0.0000

 Summary of Natural Population Analysis:

                                       Natural Population
                Natural  -----------------------------------------------
    Atom  No    Charge         Core      Valence    Rydberg      Total
 -----------------------------------------------------------------------
      O    1   -1.12288      1.99972     7.00625    0.11691     9.12288
      H    2    0.41259      0.00000     0.57015    0.01726     0.58741
     Cl    3   -0.67562      9.99985     7.53491    0.14086    17.67562
      H    4    0.38565      0.00000     0.59318    0.02117     0.61435
 =======================================================================
   * Total *   -1.00025     11.99956    15.70450    0.29619    28.00025

 Normal termination of Gaussian 16 at Fri Oct  8 13:09:34 2021.
