 Gaussian 16, Revision B.01,
 Gaussian 16:  ES64L-G16RevB.01 20-Dec-2017

 ----------------------------------------------------
 #p pop=NBO SP NoSymm mp2/aug-cc-pvtz density=current
 ----------------------------------------------------

 -----
 title
 -----
 Symbolic Z-matrix:
 Charge = -1 Multiplicity = 1

                          Input orientation:
 ---------------------------------------------------------------------
 Center     Atomic      Atomic             Coordinates (Angstroms)
 Number     Number       Type             X           Y           Z
 ---------------------------------------------------------------------
      1          8           0        0.000000    0.000000    0.000000
      2          1           0        0.960616    0.000000    0.000000
      3         17           0       -0.627430   -3.025169    0.000000
      4          1           0       -0.172619   -0.832288    0.000000
 ---------------------------------------------------------------------

 SCF Done:  E(RHF) =  -535.636393347     A.U. after   11 cycles
 E2 =    -0.4765445770D+00 EUMP2 =    -0.53611293792354D+03

 Alpha  occ. eigenvalues -- -104.52265 -20.37769 -10.24700  -7.71307  -7.71305
 Alpha  occ. eigenvalues --   -7.71305  -1.20816  -0.75630  -0.56433  -0.42687
 Alpha  occ. eigenvalues --   -0.33970  -0.17480  -0.17007  -0.16966
 Alpha virt. eigenvalues --    0.13637   0.18157   0.25747   0.26550   0.27592
 Alpha virt. eigenvalues --    0.28758   0.30173   0.30709   0.34830   0.39972
 Alpha virt. eigenvalues --    0.41450   0.41463   0.43150   0.49914   0.55068

 Mulliken charges:
               1
     1  O   -0.423485
     2  H    0.173276
     3  Cl  -0.954180
     4  H    0.204389
 Sum of Mulliken charges =  -1.00000

 Dipole moment (field-independent basis, Debye):
    X=              3.8840    Y=             12.1301    Z=              0.0000  Tot=             12.7367
 Quadrupole moment (field-independent basis, Debye-Ang):
   XX=            -24.1203   YY=            -64.6558   ZZ=            -25.0483
   XY=             -7.8260   XZ=             -0.0000   YZ=              0.0000

 Summary of Natural Population Analysis:

                                       Natural Population
                Natural  -----------------------------------------------
    Atom  No    Charge         Core      Valence    Rydberg      Total
 -----------------------------------------------------------------------
      O    1   -0.93173      1.99960     6.83280    0.09933     8.93173
      H    2    0.43593      0.00000     0.55193    0.01213     0.56407
     Cl    3   -0.97013     10.00008     7.81967    0.15037    17.97013
      H    4    0.46593      0.00000     0.51288    0.02120     0.53407
 =======================================================================
   * Total *   -1.00000     11.99969    15.71728    0.28304    28.00000

 Normal termination of Gaussian 16 at Fri Oct  8 13:07:26 2021.
