 Gaussian 16, Revision B.01,
 Gaussian 16:  ES64L-G16RevB.01 20-Dec-2017

 ----------------------------------------------------
 #p pop=NBO SP NoSymm mp2/aug-cc-pvtz density=current
 ----------------------------------------------------

 -----
 title
 -----
 Symbolic Z-matrix:
 Charge = -1 Multiplicity = 1

                          Input orientation:
 ---------------------------------------------------------------------
 Center     Atomic      Atomic             Coordinates (Angstroms)
 Number     Number       Type             X           Y           Z
 ---------------------------------------------------------------------
      1          8           0        0.000000    0.000000    0.000000
      2          1           0        0.960616    0.000000    0.000000
      3         17           0       -0.627430   -3.025169    0.000000
      4          1           0       -0.192927   -0.930204    0.000000
 ---------------------------------------------------------------------

 SCF Done:  E(RHF) =  -535.651175467     A.U. after   11 cycles
 E2 =    -0.4813922265D+00 EUMP2 =    -0.53613256769355D+03

 Alpha  occ. eigenvalues -- -104.52743 -20.37858 -10.25187  -7.71796  -7.71791
 Alpha  occ. eigenvalues --   -7.71791  -1.17169  -0.76221  -0.52980  -0.41258
 Alpha  occ. eigenvalues --   -0.32804  -0.17976  -0.17496  -0.17452
 Alpha virt. eigenvalues --    0.13790   0.18203   0.25677   0.26671   0.27591
 Alpha virt. eigenvalues --    0.28762   0.30411   0.30961   0.35098   0.39847
 Alpha virt. eigenvalues --    0.41267   0.41761   0.43323   0.49881   0.55270

 Mulliken charges:
               1
     1  O   -0.518584
     2  H    0.166605
     3  Cl  -0.926448
     4  H    0.278426
 Sum of Mulliken charges =  -1.00000

 Dipole moment (field-independent basis, Debye):
    X=              3.7639    Y=             11.7221    Z=              0.0000  Tot=             12.3116
 Quadrupole moment (field-independent basis, Debye-Ang):
   XX=            -24.1302   YY=            -63.4663   ZZ=            -25.1092
   XY=             -7.5897   XZ=             -0.0000   YZ=             -0.0000

 Summary of Natural Population Analysis:

                                       Natural Population
                Natural  -----------------------------------------------
    Atom  No    Charge         Core      Valence    Rydberg      Total
 -----------------------------------------------------------------------
      O    1   -0.97866      1.99966     6.87743    0.10157     8.97866
      H    2    0.43666      0.00000     0.55109    0.01225     0.56334
     Cl    3   -0.94660     10.00009     7.79779    0.14872    17.94660
      H    4    0.48860      0.00000     0.49001    0.02140     0.51140
 =======================================================================
   * Total *   -1.00000     11.99974    15.71632    0.28394    28.00000

 Normal termination of Gaussian 16 at Fri Oct  8 13:07:46 2021.
