 Gaussian 16, Revision B.01,
 Gaussian 16:  ES64L-G16RevB.01 20-Dec-2017

 ----------------------------------------------------
 #p pop=NBO SP NoSymm mp2/aug-cc-pvtz density=current
 ----------------------------------------------------

 -----
 title
 -----
 Symbolic Z-matrix:
 Charge = -1 Multiplicity = 1

                          Input orientation:
 ---------------------------------------------------------------------
 Center     Atomic      Atomic             Coordinates (Angstroms)
 Number     Number       Type             X           Y           Z
 ---------------------------------------------------------------------
      1          8           0        0.000000    0.000000    0.000000
      2          1           0        0.960616    0.000000    0.000000
      3         17           0       -0.627430   -3.025169    0.000000
      4          1           0       -0.162465   -0.783329    0.000000
 ---------------------------------------------------------------------

 SCF Done:  E(RHF) =  -535.615310029     A.U. after   11 cycles
 E2 =    -0.4742973365D+00 EUMP2 =    -0.53608960736551D+03

 Alpha  occ. eigenvalues -- -104.52082 -20.37556 -10.24512  -7.71119  -7.71117
 Alpha  occ. eigenvalues --   -7.71117  -1.22934  -0.75393  -0.58201  -0.43301
 Alpha  occ. eigenvalues --   -0.34505  -0.17270  -0.16811  -0.16772
 Alpha virt. eigenvalues --    0.13574   0.18117   0.25777   0.26469   0.27579
 Alpha virt. eigenvalues --    0.28758   0.30050   0.30600   0.34706   0.39933
 Alpha virt. eigenvalues --    0.41334   0.41608   0.43099   0.49982   0.54907

 Mulliken charges:
               1
     1  O   -0.371734
     2  H    0.178664
     3  Cl  -0.964942
     4  H    0.158013
 Sum of Mulliken charges =  -1.00000

 Dipole moment (field-independent basis, Debye):
    X=              3.9356    Y=             12.2945    Z=              0.0000  Tot=             12.9090
 Quadrupole moment (field-independent basis, Debye-Ang):
   XX=            -24.0992   YY=            -65.1065   ZZ=            -25.0078
   XY=             -7.9174   XZ=             -0.0000   YZ=             -0.0000

 Summary of Natural Population Analysis:

                                       Natural Population
                Natural  -----------------------------------------------
    Atom  No    Charge         Core      Valence    Rydberg      Total
 -----------------------------------------------------------------------
      O    1   -0.90260      1.99955     6.80449    0.09855     8.90260
      H    2    0.43463      0.00000     0.55322    0.01216     0.56537
     Cl    3   -0.97775     10.00008     7.82652    0.15115    17.97775
      H    4    0.44572      0.00000     0.53301    0.02127     0.55428
 =======================================================================
   * Total *   -1.00000     11.99964    15.71723    0.28313    28.00000

 Normal termination of Gaussian 16 at Fri Oct  8 13:07:17 2021.
