 Gaussian 16, Revision B.01,
 Gaussian 16:  ES64L-G16RevB.01 20-Dec-2017

 --------------------------------------------------------
 #p pop=NBO SP NoSymm mp2/gen Pseudo=read density=current
 --------------------------------------------------------

 -----
 title
 -----
 Symbolic Z-matrix:
 Charge = -1 Multiplicity = 1

                          Input orientation:
 ---------------------------------------------------------------------
 Center     Atomic      Atomic             Coordinates (Angstroms)
 Number     Number       Type             X           Y           Z
 ---------------------------------------------------------------------
      1          8           0        0.000000    0.000000    0.000000
      2         17           0        1.684465    0.000000    0.000000
      3         35           0       -0.713606   -2.983785    0.000000
      4          1           0       -0.290752   -1.215715    0.000000
 ---------------------------------------------------------------------

 SCF Done:  E(RHF) =  -950.496518105     A.U. after   13 cycles
 E2 =    -0.7156510686D+00 EUMP2 =    -0.95121216917313D+03

 Alpha  occ. eigenvalues -- -104.70260 -20.42582 -10.42228  -9.58756  -7.88940
 Alpha  occ. eigenvalues --   -7.88704  -7.88696  -7.33634  -7.33450  -7.33448
 Alpha  occ. eigenvalues --   -2.88752  -2.88672  -2.88670  -2.88483  -2.88482
 Alpha  occ. eigenvalues --   -1.16592  -0.85493  -0.78896  -0.47053  -0.40481
 Alpha  occ. eigenvalues --   -0.39621  -0.28426  -0.24844  -0.20588  -0.19952
 Alpha  occ. eigenvalues --   -0.19905
 Alpha virt. eigenvalues --    0.15885   0.19037   0.22367   0.23742   0.24927
 Alpha virt. eigenvalues --    0.25909   0.26213   0.29682   0.31209   0.32512
 Alpha virt. eigenvalues --    0.33243   0.33555   0.36523   0.43444   0.43459

 Mulliken charges:
               1
     1  O   -0.558923
     2  Cl   0.006613
     3  Br  -0.684805
     4  H    0.237115
 Sum of Mulliken charges =  -1.00000

 Dipole moment (field-independent basis, Debye):
    X=              0.8364    Y=              8.3348    Z=             -0.0000  Tot=              8.3766
 Quadrupole moment (field-independent basis, Debye-Ang):
   XX=            -45.5711   YY=            -69.8648   ZZ=            -42.6080
   XY=             -6.8941   XZ=             -0.0000   YZ=             -0.0000

 Summary of Natural Population Analysis:

                                       Natural Population
                Natural  -----------------------------------------------
    Atom  No    Charge         Core      Valence    Rydberg      Total
 -----------------------------------------------------------------------
      O    1   -0.81623      1.99981     6.70287    0.11356     8.81623
     Cl    2    0.12817      9.99976     6.71993    0.15214    16.87183
     Br    3   -0.69867     27.98758     7.56308    0.14801    35.69867
      H    4    0.38673      0.00000     0.58588    0.02738     0.61327
 =======================================================================
   * Total *   -1.00000     39.98715    21.57176    0.44109    62.00000

 Normal termination of Gaussian 16 at Tue Oct 19 14:36:17 2021.
