 Gaussian 16, Revision B.01,
 Gaussian 16:  ES64L-G16RevB.01 20-Dec-2017

 --------------------------------------------------------
 #p pop=NBO SP NoSymm mp2/gen Pseudo=read density=current
 --------------------------------------------------------

 -----
 title
 -----
 Symbolic Z-matrix:
 Charge = -1 Multiplicity = 1

                          Input orientation:
 ---------------------------------------------------------------------
 Center     Atomic      Atomic             Coordinates (Angstroms)
 Number     Number       Type             X           Y           Z
 ---------------------------------------------------------------------
      1          8           0        0.000000    0.000000    0.000000
      2         17           0        1.684465    0.000000    0.000000
      3         35           0       -0.713606   -2.983785    0.000000
      4          1           0       -0.279122   -1.167086    0.000000
 ---------------------------------------------------------------------

 SCF Done:  E(RHF) =  -950.502656589     A.U. after   13 cycles
 E2 =    -0.7135523557D+00 EUMP2 =    -0.95121620894485D+03

 Alpha  occ. eigenvalues -- -104.70939 -20.43576 -10.42903  -9.58026  -7.89616
 Alpha  occ. eigenvalues --   -7.89374  -7.89366  -7.32883  -7.32730  -7.32728
 Alpha  occ. eigenvalues --   -2.87996  -2.87931  -2.87929  -2.87775  -2.87775
 Alpha  occ. eigenvalues --   -1.17858  -0.86355  -0.78102  -0.48388  -0.41356
 Alpha  occ. eigenvalues --   -0.40504  -0.28800  -0.25614  -0.20187  -0.19330
 Alpha  occ. eigenvalues --   -0.19305
 Alpha virt. eigenvalues --    0.15850   0.18848   0.22392   0.23631   0.24942
 Alpha virt. eigenvalues --    0.26051   0.26312   0.29600   0.30910   0.32409
 Alpha virt. eigenvalues --    0.32963   0.33327   0.36329   0.43513   0.43616

 Mulliken charges:
               1
     1  O   -0.543793
     2  Cl   0.015056
     3  Br  -0.729153
     4  H    0.257889
 Sum of Mulliken charges =  -1.00000

 Dipole moment (field-independent basis, Debye):
    X=              1.0581    Y=              8.8143    Z=              0.0000  Tot=              8.8776
 Quadrupole moment (field-independent basis, Debye-Ang):
   XX=            -45.4782   YY=            -71.4476   ZZ=            -42.6667
   XY=             -7.2678   XZ=             -0.0000   YZ=             -0.0000

 Summary of Natural Population Analysis:

                                       Natural Population
                Natural  -----------------------------------------------
    Atom  No    Charge         Core      Valence    Rydberg      Total
 -----------------------------------------------------------------------
      O    1   -0.80766      1.99979     6.69489    0.11298     8.80766
     Cl    2    0.13535      9.99977     6.71490    0.14998    16.86465
     Br    3   -0.73653     27.98769     7.59974    0.14910    35.73653
      H    4    0.40885      0.00000     0.56363    0.02752     0.59115
 =======================================================================
   * Total *   -1.00000     39.98724    21.57317    0.43959    62.00000

 Normal termination of Gaussian 16 at Tue Oct 19 14:35:58 2021.
