 Gaussian 16, Revision B.01,
 Gaussian 16:  ES64L-G16RevB.01 20-Dec-2017

 --------------------------------------------------------
 #p pop=NBO SP NoSymm mp2/gen Pseudo=read density=current
 --------------------------------------------------------

 -----
 title
 -----
 Symbolic Z-matrix:
 Charge = -1 Multiplicity = 1

                          Input orientation:
 ---------------------------------------------------------------------
 Center     Atomic      Atomic             Coordinates (Angstroms)
 Number     Number       Type             X           Y           Z
 ---------------------------------------------------------------------
      1          8           0        0.000000    0.000000    0.000000
      2         17           0        1.684465    0.000000    0.000000
      3         35           0       -0.713606   -2.983785    0.000000
      4          1           0       -0.255862   -1.069829    0.000000
 ---------------------------------------------------------------------

 SCF Done:  E(RHF) =  -950.515178922     A.U. after   13 cycles
 E2 =    -0.7083174317D+00 EUMP2 =    -0.95122349635368D+03

 Alpha  occ. eigenvalues -- -104.72170 -20.45172 -10.44126  -9.56765  -7.90842
 Alpha  occ. eigenvalues --   -7.90587  -7.90578  -7.31587  -7.31487  -7.31485
 Alpha  occ. eigenvalues --   -2.86693  -2.86652  -2.86650  -2.86553  -2.86553
 Alpha  occ. eigenvalues --   -1.20444  -0.88060  -0.76719  -0.51277  -0.42953
 Alpha  occ. eigenvalues --   -0.42119  -0.29819  -0.26999  -0.19250  -0.18237
 Alpha  occ. eigenvalues --   -0.18227
 Alpha virt. eigenvalues --    0.15740   0.18482   0.22405   0.23395   0.25015
 Alpha virt. eigenvalues --    0.26315   0.26528   0.29181   0.30467   0.32353
 Alpha virt. eigenvalues --    0.32410   0.32947   0.36011   0.43543   0.43644

 Mulliken charges:
               1
     1  O   -0.518249
     2  Cl   0.031691
     3  Br  -0.806043
     4  H    0.292601
 Sum of Mulliken charges =  -1.00000

 Dipole moment (field-independent basis, Debye):
    X=              1.4715    Y=              9.6908    Z=             -0.0000  Tot=              9.8019
 Quadrupole moment (field-independent basis, Debye-Ang):
   XX=            -45.2874   YY=            -74.3417   ZZ=            -42.7660
   XY=             -7.9487   XZ=              0.0000   YZ=              0.0000

 Summary of Natural Population Analysis:

                                       Natural Population
                Natural  -----------------------------------------------
    Atom  No    Charge         Core      Valence    Rydberg      Total
 -----------------------------------------------------------------------
      O    1   -0.78912      1.99974     6.67755    0.11183     8.78912
     Cl    2    0.14833      9.99978     6.70548    0.14641    16.85167
     Br    3   -0.80765     27.98792     7.66889    0.15085    35.80765
      H    4    0.44844      0.00000     0.52340    0.02815     0.55156
 =======================================================================
   * Total *   -1.00000     39.98744    21.57532    0.43723    62.00000

 Normal termination of Gaussian 16 at Tue Oct 19 14:35:19 2021.
