 Gaussian 16, Revision B.01,
 Gaussian 16:  ES64L-G16RevB.01 20-Dec-2017

 --------------------------------------------------------
 #p pop=NBO SP NoSymm mp2/gen Pseudo=read density=current
 --------------------------------------------------------

 -----
 title
 -----
 Symbolic Z-matrix:
 Charge = -1 Multiplicity = 1

                          Input orientation:
 ---------------------------------------------------------------------
 Center     Atomic      Atomic             Coordinates (Angstroms)
 Number     Number       Type             X           Y           Z
 ---------------------------------------------------------------------
      1          8           0        0.000000    0.000000    0.000000
      2         17           0        1.684465    0.000000    0.000000
      3         35           0       -0.713606   -2.983785    0.000000
      4          1           0       -0.209342   -0.875315    0.000000
 ---------------------------------------------------------------------

 SCF Done:  E(RHF) =  -950.519202905     A.U. after   13 cycles
 E2 =    -0.6964669804D+00 EUMP2 =    -0.95121566988508D+03

 Alpha  occ. eigenvalues -- -104.74055 -20.46521 -10.45993  -9.55066  -7.92711
 Alpha  occ. eigenvalues --   -7.92438  -7.92427  -7.29846  -7.29810  -7.29808
 Alpha  occ. eigenvalues --   -2.84945  -2.84932  -2.84930  -2.84901  -2.84901
 Alpha  occ. eigenvalues --   -1.26282  -0.91391  -0.74788  -0.57378  -0.45440
 Alpha  occ. eigenvalues --   -0.44647  -0.31863  -0.29086  -0.17606  -0.16702
 Alpha  occ. eigenvalues --   -0.16701
 Alpha virt. eigenvalues --    0.15448   0.17881   0.22384   0.22991   0.25225
 Alpha virt. eigenvalues --    0.26677   0.26906   0.28006   0.30059   0.31386
 Alpha virt. eigenvalues --    0.32324   0.32461   0.35694   0.42911   0.43528

 Mulliken charges:
               1
     1  O   -0.399411
     2  Cl   0.064825
     3  Br  -0.907060
     4  H    0.241646
 Sum of Mulliken charges =  -1.00000

 Dipole moment (field-independent basis, Debye):
    X=              2.1344    Y=             11.0080    Z=              0.0000  Tot=             11.2130
 Quadrupole moment (field-independent basis, Debye-Ang):
   XX=            -44.8657   YY=            -78.6041   ZZ=            -42.8506
   XY=             -8.9533   XZ=              0.0000   YZ=              0.0000

 Summary of Natural Population Analysis:

                                       Natural Population
                Natural  -----------------------------------------------
    Atom  No    Charge         Core      Valence    Rydberg      Total
 -----------------------------------------------------------------------
      O    1   -0.71734      1.99960     6.61042    0.10732     8.71734
     Cl    2    0.16587      9.99984     6.69188    0.14241    16.83413
     Br    3   -0.91886     27.98836     7.77654    0.15396    35.91886
      H    4    0.47032      0.00000     0.50069    0.02899     0.52968
 =======================================================================
   * Total *   -1.00000     39.98780    21.57951    0.43269    62.00000

 Normal termination of Gaussian 16 at Tue Oct 19 14:34:04 2021.
