 Gaussian 16, Revision B.01,
 Gaussian 16:  ES64L-G16RevB.01 20-Dec-2017

 --------------------------------------------------------
 #p pop=NBO SP NoSymm mp2/gen Pseudo=read density=current
 --------------------------------------------------------

 -----
 title
 -----
 Symbolic Z-matrix:
 Charge = -1 Multiplicity = 1

                          Input orientation:
 ---------------------------------------------------------------------
 Center     Atomic      Atomic             Coordinates (Angstroms)
 Number     Number       Type             X           Y           Z
 ---------------------------------------------------------------------
      1          8           0        0.000000    0.000000    0.000000
      2         17           0        1.684465    0.000000    0.000000
      3         35           0       -0.713606   -2.983785    0.000000
      4          1           0       -0.232602   -0.972572    0.000000
 ---------------------------------------------------------------------

 SCF Done:  E(RHF) =  -950.523643860     A.U. after   13 cycles
 E2 =    -0.7024011496D+00 EUMP2 =    -0.95122604500993D+03

 Alpha  occ. eigenvalues -- -104.73205 -20.46156 -10.45152  -9.55788  -7.91869
 Alpha  occ. eigenvalues --   -7.91604  -7.91594  -7.30585  -7.30523  -7.30522
 Alpha  occ. eigenvalues --   -2.85687  -2.85663  -2.85661  -2.85605  -2.85605
 Alpha  occ. eigenvalues --   -1.23184  -0.89727  -0.75625  -0.54323  -0.44310
 Alpha  occ. eigenvalues --   -0.43497  -0.30894  -0.28149  -0.18355  -0.17368
 Alpha  occ. eigenvalues --   -0.17363
 Alpha virt. eigenvalues --    0.15601   0.18155   0.22393   0.23175   0.25115
 Alpha virt. eigenvalues --    0.26529   0.26732   0.28571   0.30241   0.31883
 Alpha virt. eigenvalues --    0.32369   0.32650   0.35803   0.43357   0.43530

 Mulliken charges:
               1
     1  O   -0.480198
     2  Cl   0.048648
     3  Br  -0.864755
     4  H    0.296305
 Sum of Mulliken charges =  -1.00000

 Dipole moment (field-independent basis, Debye):
    X=              1.8320    Y=             10.4259    Z=             -0.0000  Tot=             10.5856
 Quadrupole moment (field-independent basis, Debye-Ang):
   XX=            -45.0850   YY=            -76.7468   ZZ=            -42.8297
   XY=             -8.5141   XZ=              0.0000   YZ=              0.0000

 Summary of Natural Population Analysis:

                                       Natural Population
                Natural  -----------------------------------------------
    Atom  No    Charge         Core      Valence    Rydberg      Total
 -----------------------------------------------------------------------
      O    1   -0.76120      1.99968     6.65155    0.10996     8.76120
     Cl    2    0.15867      9.99981     6.69762    0.14390    16.84133
     Br    3   -0.86953     27.98815     7.72908    0.15229    35.86953
      H    4    0.47206      0.00000     0.49915    0.02880     0.52794
 =======================================================================
   * Total *   -1.00000     39.98764    21.57740    0.43495    62.00000

 Normal termination of Gaussian 16 at Tue Oct 19 14:34:42 2021.
