 Gaussian 16, Revision B.01,
 Gaussian 16:  ES64L-G16RevB.01 20-Dec-2017

 --------------------------------------------------------
 #p pop=NBO SP NoSymm mp2/gen Pseudo=read density=current
 --------------------------------------------------------

 -----
 title
 -----
 Symbolic Z-matrix:
 Charge = -1 Multiplicity = 1

                          Input orientation:
 ---------------------------------------------------------------------
 Center     Atomic      Atomic             Coordinates (Angstroms)
 Number     Number       Type             X           Y           Z
 ---------------------------------------------------------------------
      1          8           0        0.000000    0.000000    0.000000
      2         17           0        1.684465    0.000000    0.000000
      3         35           0       -0.713606   -2.983785    0.000000
      4          1           0       -0.174451   -0.729429    0.000000
 ---------------------------------------------------------------------

 SCF Done:  E(RHF) =  -950.450445372     A.U. after   13 cycles
 E2 =    -0.6884246246D+00 EUMP2 =    -0.95113886999654D+03

 Alpha  occ. eigenvalues -- -104.75069 -20.46066 -10.46990  -9.54341  -7.93710
 Alpha  occ. eigenvalues --   -7.93427  -7.93416  -7.29107  -7.29092  -7.29090
 Alpha  occ. eigenvalues --   -2.84205  -2.84202  -2.84200  -2.84191  -2.84191
 Alpha  occ. eigenvalues --   -1.32237  -0.93957  -0.73902  -0.61665  -0.46820
 Alpha  occ. eigenvalues --   -0.46041  -0.33066  -0.30203  -0.16762  -0.16000
 Alpha  occ. eigenvalues --   -0.15998
 Alpha virt. eigenvalues --    0.15214   0.17563   0.22399   0.22777   0.25410
 Alpha virt. eigenvalues --    0.26680   0.27104   0.27457   0.29713   0.30687
 Alpha virt. eigenvalues --    0.31982   0.32424   0.35562   0.42244   0.43589

 Mulliken charges:
               1
     1  O   -0.235519
     2  Cl   0.084369
     3  Br  -0.946744
     4  H    0.097894
 Sum of Mulliken charges =  -1.00000

 Dipole moment (field-independent basis, Debye):
    X=              2.4956    Y=             11.6304    Z=              0.0000  Tot=             11.8951
 Quadrupole moment (field-independent basis, Debye-Ang):
   XX=            -44.4955   YY=            -80.4659   ZZ=            -42.8043
   XY=             -9.4020   XZ=              0.0000   YZ=             -0.0000

 Summary of Natural Population Analysis:

                                       Natural Population
                Natural  -----------------------------------------------
    Atom  No    Charge         Core      Valence    Rydberg      Total
 -----------------------------------------------------------------------
      O    1   -0.61710      1.99935     6.51369    0.10406     8.61710
     Cl    2    0.17135      9.99989     6.68727    0.14150    16.82865
     Br    3   -0.96348     27.98852     7.81826    0.15670    35.96348
      H    4    0.40923      0.00000     0.56176    0.02902     0.59077
 =======================================================================
   * Total *   -1.00000     39.98776    21.58097    0.43127    62.00000

 Normal termination of Gaussian 16 at Tue Oct 19 14:33:07 2021.
