 Gaussian 16, Revision B.01,
 Gaussian 16:  ES64L-G16RevB.01 20-Dec-2017

 --------------------------------------------------------
 #p pop=NBO SP NoSymm mp2/gen Pseudo=read density=current
 --------------------------------------------------------

 -----
 title
 -----
 Symbolic Z-matrix:
 Charge = -1 Multiplicity = 1

                          Input orientation:
 ---------------------------------------------------------------------
 Center     Atomic      Atomic             Coordinates (Angstroms)
 Number     Number       Type             X           Y           Z
 ---------------------------------------------------------------------
      1          8           0        0.000000    0.000000    0.000000
      2         17           0        1.684465    0.000000    0.000000
      3         35           0       -0.713606   -2.983785    0.000000
      4          1           0       -0.244232   -1.021201    0.000000
 ---------------------------------------------------------------------

 SCF Done:  E(RHF) =  -950.520355845     A.U. after   13 cycles
 E2 =    -0.7053972451D+00 EUMP2 =    -0.95122575308990D+03

 Alpha  occ. eigenvalues -- -104.72712 -20.45743 -10.44664  -9.56242  -7.91381
 Alpha  occ. eigenvalues --   -7.91120  -7.91111  -7.31051  -7.30971  -7.30969
 Alpha  occ. eigenvalues --   -2.86154  -2.86122  -2.86120  -2.86046  -2.86046
 Alpha  occ. eigenvalues --   -1.21784  -0.88897  -0.76137  -0.52789  -0.43662
 Alpha  occ. eigenvalues --   -0.42838  -0.30364  -0.27603  -0.18787  -0.17775
 Alpha  occ. eigenvalues --   -0.17768
 Alpha virt. eigenvalues --    0.15673   0.18312   0.22399   0.23281   0.25063
 Alpha virt. eigenvalues --    0.26429   0.26633   0.28882   0.30339   0.32142
 Alpha virt. eigenvalues --    0.32359   0.32790   0.35892   0.43531   0.43538

 Mulliken charges:
               1
     1  O   -0.502798
     2  Cl   0.040132
     3  Br  -0.837663
     4  H    0.300329
 Sum of Mulliken charges =  -1.00000

 Dipole moment (field-independent basis, Debye):
    X=              1.6590    Y=             10.0775    Z=              0.0000  Tot=             10.2132
 Quadrupole moment (field-independent basis, Debye-Ang):
   XX=            -45.1880   YY=            -75.6118   ZZ=            -42.8029
   XY=             -8.2471   XZ=             -0.0000   YZ=             -0.0000

 Summary of Natural Population Analysis:

                                       Natural Population
                Natural  -----------------------------------------------
    Atom  No    Charge         Core      Valence    Rydberg      Total
 -----------------------------------------------------------------------
      O    1   -0.77686      1.99972     6.66613    0.11102     8.77686
     Cl    2    0.15388      9.99979     6.70131    0.14502    16.84612
     Br    3   -0.83994     27.98804     7.70034    0.15157    35.83994
      H    4    0.46293      0.00000     0.50856    0.02851     0.53707
 =======================================================================
   * Total *   -1.00000     39.98754    21.57633    0.43613    62.00000

 Normal termination of Gaussian 16 at Tue Oct 19 14:35:01 2021.
