 Gaussian 16, Revision B.01,
 Gaussian 16:  ES64L-G16RevB.01 20-Dec-2017

 --------------------------------------------------------
 #p pop=NBO SP NoSymm mp2/gen Pseudo=read density=current
 --------------------------------------------------------

 -----
 title
 -----
 Symbolic Z-matrix:
 Charge = -1 Multiplicity = 1

                          Input orientation:
 ---------------------------------------------------------------------
 Center     Atomic      Atomic             Coordinates (Angstroms)
 Number     Number       Type             X           Y           Z
 ---------------------------------------------------------------------
      1          8           0        0.000000    0.000000    0.000000
      2         17           0        1.684465    0.000000    0.000000
      3         35           0       -0.713606   -2.983785    0.000000
      4          1           0       -0.302382   -1.264344    0.000000
 ---------------------------------------------------------------------

 SCF Done:  E(RHF) =  -950.490971165     A.U. after   13 cycles
 E2 =    -0.7172666276D+00 EUMP2 =    -0.95120823779290D+03

 Alpha  occ. eigenvalues -- -104.69552 -20.41491 -10.41524  -9.59539  -7.88236
 Alpha  occ. eigenvalues --   -7.88006  -7.87999  -7.34439  -7.34221  -7.34219
 Alpha  occ. eigenvalues --   -2.89562  -2.89466  -2.89464  -2.89241  -2.89241
 Alpha  occ. eigenvalues --   -1.15347  -0.84643  -0.79743  -0.45823  -0.39575
 Alpha  occ. eigenvalues --   -0.38705  -0.28234  -0.24041  -0.20930  -0.20610
 Alpha  occ. eigenvalues --   -0.20464
 Alpha virt. eigenvalues --    0.15902   0.19224   0.22326   0.23835   0.24929
 Alpha virt. eigenvalues --    0.25768   0.26132   0.29697   0.31492   0.32695
 Alpha virt. eigenvalues --    0.33522   0.33815   0.36734   0.43166   0.43367

 Mulliken charges:
               1
     1  O   -0.576995
     2  Cl  -0.002105
     3  Br  -0.637708
     4  H    0.216808
 Sum of Mulliken charges =  -1.00000

 Dipole moment (field-independent basis, Debye):
    X=              0.6079    Y=              7.8357    Z=             -0.0000  Tot=              7.8593
 Quadrupole moment (field-independent basis, Debye-Ang):
   XX=            -45.6636   YY=            -68.2225   ZZ=            -42.5455
   XY=             -6.5052   XZ=              0.0000   YZ=              0.0000

 Summary of Natural Population Analysis:

                                       Natural Population
                Natural  -----------------------------------------------
    Atom  No    Charge         Core      Valence    Rydberg      Total
 -----------------------------------------------------------------------
      O    1   -0.82562      1.99982     6.71156    0.11423     8.82562
     Cl    2    0.12070      9.99976     6.72505    0.15449    16.87930
     Br    3   -0.66004     27.98747     7.52577    0.14680    35.66004
      H    4    0.36496      0.00000     0.60761    0.02743     0.63504
 =======================================================================
   * Total *   -1.00000     39.98705    21.56999    0.44296    62.00000

 Normal termination of Gaussian 16 at Tue Oct 19 14:36:35 2021.
