 Gaussian 16, Revision B.01,
 Gaussian 16:  ES64L-G16RevB.01 20-Dec-2017

 --------------------------------------------------------
 #p pop=NBO SP NoSymm mp2/gen Pseudo=read density=current
 --------------------------------------------------------

 -----
 title
 -----
 Symbolic Z-matrix:
 Charge = -1 Multiplicity = 1

                          Input orientation:
 ---------------------------------------------------------------------
 Center     Atomic      Atomic             Coordinates (Angstroms)
 Number     Number       Type             X           Y           Z
 ---------------------------------------------------------------------
      1          8           0        0.000000    0.000000    0.000000
      2         17           0        1.684465    0.000000    0.000000
      3         35           0       -0.713606   -2.983785    0.000000
      4          1           0       -0.186081   -0.778058    0.000000
 ---------------------------------------------------------------------

 SCF Done:  E(RHF) =  -950.486072629     A.U. after   13 cycles
 E2 =    -0.6909487935D+00 EUMP2 =    -0.95117702142206D+03

 Alpha  occ. eigenvalues -- -104.74758 -20.46331 -10.46685  -9.54544  -7.93405
 Alpha  occ. eigenvalues --   -7.93125  -7.93114  -7.29313  -7.29293  -7.29292
 Alpha  occ. eigenvalues --   -2.84411  -2.84406  -2.84404  -2.84391  -2.84390
 Alpha  occ. eigenvalues --   -1.30026  -0.93092  -0.74157  -0.60298  -0.46392
 Alpha  occ. eigenvalues --   -0.45613  -0.32697  -0.29861  -0.17010  -0.16201
 Alpha  occ. eigenvalues --   -0.16200
 Alpha virt. eigenvalues --    0.15291   0.17659   0.22391   0.22841   0.25348
 Alpha virt. eigenvalues --    0.26720   0.27046   0.27589   0.29839   0.30916
 Alpha virt. eigenvalues --    0.32105   0.32435   0.35614   0.42456   0.43560

 Mulliken charges:
               1
     1  O   -0.284224
     2  Cl   0.078329
     3  Br  -0.936410
     4  H    0.142304
 Sum of Mulliken charges =  -1.00000

 Dipole moment (field-independent basis, Debye):
    X=              2.3855    Y=             11.4520    Z=             -0.0000  Tot=             11.6978
 Quadrupole moment (field-independent basis, Debye-Ang):
   XX=            -44.6250   YY=            -79.9539   ZZ=            -42.8293
   XY=             -9.2771   XZ=             -0.0000   YZ=             -0.0000

 Summary of Natural Population Analysis:

                                       Natural Population
                Natural  -----------------------------------------------
    Atom  No    Charge         Core      Valence    Rydberg      Total
 -----------------------------------------------------------------------
      O    1   -0.65560      1.99946     6.55115    0.10500     8.65560
     Cl    2    0.17016      9.99987     6.68830    0.14166    16.82984
     Br    3   -0.95249     27.98848     7.80819    0.15581    35.95249
      H    4    0.43793      0.00000     0.53315    0.02892     0.56207
 =======================================================================
   * Total *   -1.00000     39.98782    21.58079    0.43139    62.00000

 Normal termination of Gaussian 16 at Tue Oct 19 14:33:27 2021.
