 Gaussian 16, Revision B.01,
 Gaussian 16:  ES64L-G16RevB.01 20-Dec-2017

 --------------------------------------------------------
 #p pop=NBO SP NoSymm mp2/gen Pseudo=read density=current
 --------------------------------------------------------

 -----
 title
 -----
 Symbolic Z-matrix:
 Charge = -1 Multiplicity = 1

                          Input orientation:
 ---------------------------------------------------------------------
 Center     Atomic      Atomic             Coordinates (Angstroms)
 Number     Number       Type             X           Y           Z
 ---------------------------------------------------------------------
      1          8           0        0.000000    0.000000    0.000000
      2         17           0        1.684465    0.000000    0.000000
      3         35           0       -0.713606   -2.983785    0.000000
      4          1           0       -0.197712   -0.826686    0.000000
 ---------------------------------------------------------------------

 SCF Done:  E(RHF) =  -950.507622974     A.U. after   13 cycles
 E2 =    -0.6936371710D+00 EUMP2 =    -0.95120126014533D+03

 Alpha  occ. eigenvalues -- -104.74422 -20.46489 -10.46355  -9.54783  -7.93074
 Alpha  occ. eigenvalues --   -7.92797  -7.92786  -7.29557  -7.29530  -7.29529
 Alpha  occ. eigenvalues --   -2.84656  -2.84647  -2.84645  -2.84625  -2.84625
 Alpha  occ. eigenvalues --   -1.28054  -0.92236  -0.74450  -0.58864  -0.45934
 Alpha  occ. eigenvalues --   -0.45150  -0.32297  -0.29491  -0.17290  -0.16433
 Alpha  occ. eigenvalues --   -0.16433
 Alpha virt. eigenvalues --    0.15369   0.17764   0.22386   0.22912   0.25285
 Alpha virt. eigenvalues --    0.26715   0.26980   0.27775   0.29956   0.31148
 Alpha virt. eigenvalues --    0.32223   0.32443   0.35656   0.42679   0.43540

 Mulliken charges:
               1
     1  O   -0.342606
     2  Cl   0.071912
     3  Br  -0.923213
     4  H    0.193907
 Sum of Mulliken charges =  -1.00000

 Dipole moment (field-independent basis, Debye):
    X=              2.2656    Y=             11.2457    Z=              0.0000  Tot=             11.4717
 Quadrupole moment (field-independent basis, Debye-Ang):
   XX=            -44.7483   YY=            -79.3374   ZZ=            -42.8450
   XY=             -9.1285   XZ=              0.0000   YZ=             -0.0000

 Summary of Natural Population Analysis:

                                       Natural Population
                Natural  -----------------------------------------------
    Atom  No    Charge         Core      Valence    Rydberg      Total
 -----------------------------------------------------------------------
      O    1   -0.68880      1.99954     6.58319    0.10607     8.68880
     Cl    2    0.16835      9.99986     6.68983    0.14196    16.83165
     Br    3   -0.93772     27.98843     7.79440    0.15489    35.93772
      H    4    0.45817      0.00000     0.51288    0.02895     0.54183
 =======================================================================
   * Total *   -1.00000     39.98783    21.58030    0.43187    62.00000

 Normal termination of Gaussian 16 at Tue Oct 19 14:33:45 2021.
