 Gaussian 16, Revision B.01,
 Gaussian 16:  ES64L-G16RevB.01 20-Dec-2017

 --------------------------------------------------------
 #p pop=NBO SP NoSymm mp2/gen Pseudo=read density=current
 --------------------------------------------------------

 -----
 title
 -----
 Symbolic Z-matrix:
 Charge = -1 Multiplicity = 1

                          Input orientation:
 ---------------------------------------------------------------------
 Center     Atomic      Atomic             Coordinates (Angstroms)
 Number     Number       Type             X           Y           Z
 ---------------------------------------------------------------------
      1          8           0        0.000000    0.000000    0.000000
      2         17           0        1.684465    0.000000    0.000000
      3         35           0       -0.713606   -2.983785    0.000000
      4          1           0       -0.348903   -1.458858    0.000000
 ---------------------------------------------------------------------

 SCF Done:  E(RHF) =  -950.476352137     A.U. after   13 cycles
 E2 =    -0.7182818347D+00 EUMP2 =    -0.95119463397123D+03

 Alpha  occ. eigenvalues -- -104.66766 -20.36875 -10.38751  -9.62796  -7.85457
 Alpha  occ. eigenvalues --   -7.85253  -7.85249  -7.37792  -7.37435  -7.37433
 Alpha  occ. eigenvalues --   -2.92939  -2.92768  -2.92765  -2.92402  -2.92402
 Alpha  occ. eigenvalues --   -1.10812  -0.84160  -0.80910  -0.42482  -0.36045
 Alpha  occ. eigenvalues --   -0.35123  -0.29586  -0.23539  -0.23478  -0.20618
 Alpha  occ. eigenvalues --   -0.19789
 Alpha virt. eigenvalues --    0.15757   0.19839   0.22098   0.23861   0.24869
 Alpha virt. eigenvalues --    0.25495   0.26130   0.29415   0.32181   0.33804
 Alpha virt. eigenvalues --    0.34533   0.35250   0.37657   0.41929   0.42653

 Mulliken charges:
               1
     1  O   -0.672499
     2  Cl  -0.041279
     3  Br  -0.446449
     4  H    0.160227
 Sum of Mulliken charges =  -1.00000

 Dipole moment (field-independent basis, Debye):
    X=             -0.3332    Y=              5.7608    Z=              0.0000  Tot=              5.7704
 Quadrupole moment (field-independent basis, Debye-Ang):
   XX=            -46.0418   YY=            -61.4575   ZZ=            -42.2837
   XY=             -4.8895   XZ=              0.0000   YZ=             -0.0000

 Summary of Natural Population Analysis:

                                       Natural Population
                Natural  -----------------------------------------------
    Atom  No    Charge         Core      Valence    Rydberg      Total
 -----------------------------------------------------------------------
      O    1   -0.87754      1.99987     6.75999    0.11768     8.87754
     Cl    2    0.08894      9.99976     6.74649    0.16481    16.91106
     Br    3   -0.50985     27.98695     7.37818    0.14472    35.50985
      H    4    0.29845      0.00000     0.67451    0.02704     0.70155
 =======================================================================
   * Total *   -1.00000     39.98658    21.55917    0.45425    62.00000

 Normal termination of Gaussian 16 at Tue Oct 19 14:37:52 2021.
