 Gaussian 16, Revision B.01,
 Gaussian 16:  ES64L-G16RevB.01 20-Dec-2017

 --------------------------------------------------------
 #p pop=NBO SP NoSymm mp2/gen Pseudo=read density=current
 --------------------------------------------------------

 -----
 title
 -----
 Symbolic Z-matrix:
 Charge = -1 Multiplicity = 1

                          Input orientation:
 ---------------------------------------------------------------------
 Center     Atomic      Atomic             Coordinates (Angstroms)
 Number     Number       Type             X           Y           Z
 ---------------------------------------------------------------------
      1          8           0        0.000000    0.000000    0.000000
      2         17           0        1.684465    0.000000    0.000000
      3         35           0       -0.713606   -2.983785    0.000000
      4          1           0       -0.337273   -1.410229    0.000000
 ---------------------------------------------------------------------

 SCF Done:  E(RHF) =  -950.479047294     A.U. after   12 cycles
 E2 =    -0.7187744193D+00 EUMP2 =    -0.95119782171331D+03

 Alpha  occ. eigenvalues -- -104.67423 -20.37992 -10.39405  -9.62007  -7.86112
 Alpha  occ. eigenvalues --   -7.85903  -7.85898  -7.36979  -7.36656  -7.36654
 Alpha  occ. eigenvalues --   -2.92120  -2.91969  -2.91966  -2.91635  -2.91635
 Alpha  occ. eigenvalues --   -1.11847  -0.83357  -0.81430  -0.43021  -0.36871
 Alpha  occ. eigenvalues --   -0.35964  -0.29035  -0.22905  -0.22797  -0.21356
 Alpha  occ. eigenvalues --   -0.20226
 Alpha virt. eigenvalues --    0.15825   0.19714   0.22152   0.23911   0.24927
 Alpha virt. eigenvalues --    0.25489   0.26080   0.29513   0.32050   0.33543
 Alpha virt. eigenvalues --    0.34304   0.34840   0.37424   0.42169   0.42868

 Mulliken charges:
               1
     1  O   -0.646621
     2  Cl  -0.030852
     3  Br  -0.492004
     4  H    0.169477
 Sum of Mulliken charges =  -1.00000

 Dipole moment (field-independent basis, Debye):
    X=             -0.0982    Y=              6.2791    Z=              0.0000  Tot=              6.2799
 Quadrupole moment (field-independent basis, Debye-Ang):
   XX=            -45.9460   YY=            -63.1399   ZZ=            -42.3492
   XY=             -5.2931   XZ=              0.0000   YZ=             -0.0000

 Summary of Natural Population Analysis:

                                       Natural Population
                Natural  -----------------------------------------------
    Atom  No    Charge         Core      Valence    Rydberg      Total
 -----------------------------------------------------------------------
      O    1   -0.86220      1.99986     6.74573    0.11661     8.86220
     Cl    2    0.09710      9.99976     6.74092    0.16222    16.90290
     Br    3   -0.54755     27.98710     7.41446    0.14600    35.54755
      H    4    0.31264      0.00000     0.66112    0.02624     0.68736
 =======================================================================
   * Total *   -1.00000     39.98672    21.56222    0.45106    62.00000

 Normal termination of Gaussian 16 at Tue Oct 19 14:37:33 2021.
