 Gaussian 16, Revision B.01,
 Gaussian 16:  ES64L-G16RevB.01 20-Dec-2017

 --------------------------------------------------------
 #p pop=NBO SP NoSymm mp2/gen Pseudo=read density=current
 --------------------------------------------------------

 -----
 title
 -----
 Symbolic Z-matrix:
 Charge = -1 Multiplicity = 1

                          Input orientation:
 ---------------------------------------------------------------------
 Center     Atomic      Atomic             Coordinates (Angstroms)
 Number     Number       Type             X           Y           Z
 ---------------------------------------------------------------------
      1          8           0        0.000000    0.000000    0.000000
      2         17           0        1.684465    0.000000    0.000000
      3         35           0       -0.713606   -2.983785    0.000000
      4          1           0       -0.325642   -1.361601    0.000000
 ---------------------------------------------------------------------

 SCF Done:  E(RHF) =  -950.482258869     A.U. after   13 cycles
 E2 =    -0.7188199556D+00 EUMP2 =    -0.95120107882462D+03

 Alpha  occ. eigenvalues -- -104.68117 -20.39157 -10.40096  -9.61187  -7.86804
 Alpha  occ. eigenvalues --   -7.86588  -7.86583  -7.36134  -7.35846  -7.35844
 Alpha  occ. eigenvalues --   -2.91268  -2.91137  -2.91135  -2.90838  -2.90838
 Alpha  occ. eigenvalues --   -1.12958  -0.83247  -0.81334  -0.43778  -0.37747
 Alpha  occ. eigenvalues --   -0.36854  -0.28569  -0.22613  -0.22104  -0.21766
 Alpha  occ. eigenvalues --   -0.20555
 Alpha virt. eigenvalues --    0.15873   0.19568   0.22213   0.23925   0.24947
 Alpha virt. eigenvalues --    0.25539   0.26061   0.29600   0.31901   0.33253
 Alpha virt. eigenvalues --    0.34057   0.34457   0.37189   0.42474   0.43066

 Mulliken charges:
               1
     1  O   -0.621478
     2  Cl  -0.020797
     3  Br  -0.540013
     4  H    0.182288
 Sum of Mulliken charges =  -1.00000

 Dipole moment (field-independent basis, Debye):
    X=              0.1386    Y=              6.8023    Z=              0.0000  Tot=              6.8037
 Quadrupole moment (field-independent basis, Debye-Ang):
   XX=            -45.8506   YY=            -64.8417   ZZ=            -42.4151
   XY=             -5.7003   XZ=              0.0000   YZ=             -0.0000

 Summary of Natural Population Analysis:

                                       Natural Population
                Natural  -----------------------------------------------
    Atom  No    Charge         Core      Valence    Rydberg      Total
 -----------------------------------------------------------------------
      O    1   -0.84884      1.99985     6.73308    0.11591     8.84884
     Cl    2    0.10509      9.99976     6.73556    0.15959    16.89491
     Br    3   -0.58256     27.98723     7.45109    0.14424    35.58256
      H    4    0.32631      0.00000     0.64557    0.02812     0.67369
 =======================================================================
   * Total *   -1.00000     39.98684    21.56530    0.44786    62.00000

 Normal termination of Gaussian 16 at Tue Oct 19 14:37:14 2021.
