 Gaussian 16, Revision B.01,
 Gaussian 16:  ES64L-G16RevB.01 20-Dec-2017

 --------------------------------------------------------
 #p pop=NBO SP NoSymm mp2/gen Pseudo=read density=current
 --------------------------------------------------------

 -----
 title
 -----
 Symbolic Z-matrix:
 Charge = -1 Multiplicity = 1

                          Input orientation:
 ---------------------------------------------------------------------
 Center     Atomic      Atomic             Coordinates (Angstroms)
 Number     Number       Type             X           Y           Z
 ---------------------------------------------------------------------
      1          8           0        0.000000    0.000000    0.000000
      2         17           0        1.684465    0.000000    0.000000
      3         35           0       -0.713606   -2.983785    0.000000
      4          1           0       -0.267492   -1.118458    0.000000
 ---------------------------------------------------------------------

 SCF Done:  E(RHF) =  -950.509046087     A.U. after   13 cycles
 E2 =    -0.7110708517D+00 EUMP2 =    -0.95122011693901D+03

 Alpha  occ. eigenvalues -- -104.71578 -20.44446 -10.43538  -9.57360  -7.90253
 Alpha  occ. eigenvalues --   -7.90004  -7.89995  -7.32199  -7.32074  -7.32072
 Alpha  occ. eigenvalues --   -2.87308  -2.87256  -2.87254  -2.87130  -2.87130
 Alpha  occ. eigenvalues --   -1.19140  -0.87213  -0.77374  -0.49803  -0.42183
 Alpha  occ. eigenvalues --   -0.41340  -0.29284  -0.26335  -0.19727  -0.18756
 Alpha  occ. eigenvalues --   -0.18741
 Alpha virt. eigenvalues --    0.15800   0.18661   0.22404   0.23513   0.24973
 Alpha virt. eigenvalues --    0.26188   0.26419   0.29432   0.30653   0.32364
 Alpha virt. eigenvalues --    0.32684   0.33125   0.36157   0.43538   0.43678

 Mulliken charges:
               1
     1  O   -0.530850
     2  Cl   0.023366
     3  Br  -0.769784
     4  H    0.277268
 Sum of Mulliken charges =  -1.00000

 Dipole moment (field-independent basis, Debye):
    X=              1.2706    Y=              9.2683    Z=             -0.0000  Tot=              9.3550
 Quadrupole moment (field-independent basis, Debye-Ang):
   XX=            -45.3839   YY=            -72.9475   ZZ=            -42.7200
   XY=             -7.6209   XZ=              0.0000   YZ=              0.0000

 Summary of Natural Population Analysis:

                                       Natural Population
                Natural  -----------------------------------------------
    Atom  No    Charge         Core      Valence    Rydberg      Total
 -----------------------------------------------------------------------
      O    1   -0.79900      1.99977     6.68679    0.11244     8.79900
     Cl    2    0.14211      9.99977     6.71005    0.14807    16.85789
     Br    3   -0.77304     27.98780     7.63519    0.15004    35.77304
      H    4    0.42992      0.00000     0.54228    0.02779     0.57008
 =======================================================================
   * Total *   -1.00000     39.98734    21.57431    0.43835    62.00000

 Normal termination of Gaussian 16 at Tue Oct 19 14:35:38 2021.
