 Gaussian 16, Revision B.01,
 Gaussian 16:  ES64L-G16RevB.01 20-Dec-2017

 --------------------------------------------------------
 #p pop=NBO SP NoSymm mp2/gen Pseudo=read density=current
 --------------------------------------------------------

 -----
 title
 -----
 Symbolic Z-matrix:
 Charge = -1 Multiplicity = 1

                          Input orientation:
 ---------------------------------------------------------------------
 Center     Atomic      Atomic             Coordinates (Angstroms)
 Number     Number       Type             X           Y           Z
 ---------------------------------------------------------------------
      1          8           0        0.000000    0.000000    0.000000
      2         17           0        1.684465    0.000000    0.000000
      3         35           0       -0.713606   -2.983785    0.000000
      4          1           0       -0.220972   -0.923943    0.000000
 ---------------------------------------------------------------------

 SCF Done:  E(RHF) =  -950.523807443     A.U. after   13 cycles
 E2 =    -0.6994041366D+00 EUMP2 =    -0.95122321157945D+03

 Alpha  occ. eigenvalues -- -104.73651 -20.46413 -10.45594  -9.55398  -7.92311
 Alpha  occ. eigenvalues --   -7.92042  -7.92032  -7.30186  -7.30138  -7.30137
 Alpha  occ. eigenvalues --   -2.85286  -2.85268  -2.85266  -2.85226  -2.85226
 Alpha  occ. eigenvalues --   -1.24671  -0.90556  -0.75178  -0.55858  -0.44900
 Alpha  occ. eigenvalues --   -0.44098  -0.31395  -0.28641  -0.17961  -0.17012
 Alpha  occ. eigenvalues --   -0.17009
 Alpha virt. eigenvalues --    0.15525   0.18011   0.22387   0.23078   0.25169
 Alpha virt. eigenvalues --    0.26613   0.26823   0.28275   0.30152   0.31631
 Alpha virt. eigenvalues --    0.32369   0.32531   0.35739   0.43144   0.43525

 Mulliken charges:
               1
     1  O   -0.446299
     2  Cl   0.056997
     3  Br  -0.887717
     4  H    0.277019
 Sum of Mulliken charges =  -1.00000

 Dipole moment (field-independent basis, Debye):
    X=              1.9902    Y=             10.7356    Z=              0.0000  Tot=             10.9185
 Quadrupole moment (field-independent basis, Debye-Ang):
   XX=            -44.9777   YY=            -77.7432   ZZ=            -42.8456
   XY=             -8.7492   XZ=              0.0000   YZ=             -0.0000

 Summary of Natural Population Analysis:

                                       Natural Population
                Natural  -----------------------------------------------
    Atom  No    Charge         Core      Valence    Rydberg      Total
 -----------------------------------------------------------------------
      O    1   -0.74145      1.99964     6.63312    0.10868     8.74145
     Cl    2    0.16266      9.99983     6.69447    0.14305    16.83734
     Br    3   -0.89599     27.98826     7.75465    0.15308    35.89599
      H    4    0.47478      0.00000     0.49626    0.02896     0.52522
 =======================================================================
   * Total *   -1.00000     39.98773    21.57850    0.43376    62.00000

 Normal termination of Gaussian 16 at Tue Oct 19 14:34:23 2021.
