 Gaussian 16, Revision B.01,
 Gaussian 16:  ES64L-G16RevB.01 20-Dec-2017

 --------------------------------------------------------
 #p pop=NBO SP NoSymm mp2/gen Pseudo=read density=current
 --------------------------------------------------------

 -----
 title
 -----
 Symbolic Z-matrix:
 Charge = -1 Multiplicity = 1

                          Input orientation:
 ---------------------------------------------------------------------
 Center     Atomic      Atomic             Coordinates (Angstroms)
 Number     Number       Type             X           Y           Z
 ---------------------------------------------------------------------
      1          8           0        0.000000    0.000000    0.000000
      2         17           0        1.684465    0.000000    0.000000
      3         35           0       -0.713606   -2.983785    0.000000
      4          1           0       -0.314012   -1.312972    0.000000
 ---------------------------------------------------------------------

 SCF Done:  E(RHF) =  -950.486203337     A.U. after   14 cycles
 E2 =    -0.7183296898D+00 EUMP2 =    -0.95120453302702D+03

 Alpha  occ. eigenvalues -- -104.68832 -20.40336 -10.40808  -9.60356  -7.87518
 Alpha  occ. eigenvalues --   -7.87295  -7.87289  -7.35279  -7.35027  -7.35025
 Alpha  occ. eigenvalues --   -2.90408  -2.90295  -2.90293  -2.90033  -2.90033
 Alpha  occ. eigenvalues --   -1.14130  -0.83846  -0.80603  -0.44722  -0.38656
 Alpha  occ. eigenvalues --   -0.37776  -0.28281  -0.23238  -0.21437  -0.21272
 Alpha  occ. eigenvalues --   -0.20687
 Alpha virt. eigenvalues --    0.15899   0.19403   0.22273   0.23899   0.24941
 Alpha virt. eigenvalues --    0.25639   0.26079   0.29665   0.31722   0.32955
 Alpha virt. eigenvalues --    0.33795   0.34114   0.36958   0.42822   0.43235

 Mulliken charges:
               1
     1  O   -0.598009
     2  Cl  -0.011216
     3  Br  -0.589024
     4  H    0.198249
 Sum of Mulliken charges =  -1.00000

 Dipole moment (field-independent basis, Debye):
    X=              0.3747    Y=              7.3231    Z=              0.0000  Tot=              7.3327
 Quadrupole moment (field-independent basis, Debye-Ang):
   XX=            -45.7565   YY=            -66.5420   ZZ=            -42.4808
   XY=             -6.1058   XZ=              0.0000   YZ=              0.0000

 Summary of Natural Population Analysis:

                                       Natural Population
                Natural  -----------------------------------------------
    Atom  No    Charge         Core      Valence    Rydberg      Total
 -----------------------------------------------------------------------
      O    1   -0.83640      1.99984     6.72154    0.11502     8.83640
     Cl    2    0.11299      9.99976     6.73025    0.15700    16.88701
     Br    3   -0.62120     27.98735     7.48832    0.14552    35.62120
      H    4    0.34461      0.00000     0.62772    0.02768     0.65539
 =======================================================================
   * Total *   -1.00000     39.98695    21.56783    0.44522    62.00000

 Normal termination of Gaussian 16 at Tue Oct 19 14:36:55 2021.
