 Gaussian 09, Revision E.01,
 Gaussian 09:  ES64L-G09RevE.01 30-Nov-2015

 --------------------------------------------------------
 #p pop=NBO SP NoSymm mp2/gen Pseudo=read density=current
 --------------------------------------------------------

 -----
 title
 -----
 Symbolic Z-matrix:
 Charge = -1 Multiplicity = 1

                          Input orientation:
 ---------------------------------------------------------------------
 Center     Atomic      Atomic             Coordinates (Angstroms)
 Number     Number       Type             X           Y           Z
 ---------------------------------------------------------------------
      1          8           0        0.000000    0.000000    0.000000
      2          1           0        0.960908    0.000000    0.000000
      3         53           0       -0.720970   -3.433628    0.000000
      4          1           0       -0.277414   -1.321189    0.000000
 ---------------------------------------------------------------------

 SCF Done:  E(RHF) =  -370.753221616     A.U. after   12 cycles
 E2 =    -0.5174930246D+00 EUMP2 =    -0.37127071464061D+03

 Alpha  occ. eigenvalues --  -20.36415  -7.49147  -5.31792  -5.31632  -5.31627
 Alpha  occ. eigenvalues --   -2.04568  -2.04482  -2.04476  -2.04301  -2.04301
 Alpha  occ. eigenvalues --   -1.08884  -0.65574  -0.43955  -0.35096  -0.28879
 Alpha  occ. eigenvalues --   -0.16863  -0.16373  -0.16326
 Alpha virt. eigenvalues --    0.14170   0.16941   0.22909   0.24160   0.24481
 Alpha virt. eigenvalues --    0.27899   0.29917   0.30446   0.31448   0.34262
 Alpha virt. eigenvalues --    0.36310   0.36472   0.36700   0.39166   0.39616

 Mulliken charges:
               1
     1  O   -0.625306
     2  H    0.159806
     3  I   -0.683071
     4  H    0.148571
 Sum of Mulliken charges =  -1.00000

 Dipole moment (field-independent basis, Debye):
    X=              3.4635    Y=             10.9641    Z=             -0.0000  Tot=             11.4982
 Quadrupole moment (field-independent basis, Debye-Ang):
   XX=            -40.6210   YY=            -81.7035   ZZ=            -41.5303
   XY=             -8.0327   XZ=              0.0000   YZ=              0.0000

 Summary of Natural Population Analysis:

                                       Natural Population
                Natural  -----------------------------------------------
    Atom  No    Charge         Core      Valence    Rydberg      Total
 -----------------------------------------------------------------------
      O    1   -1.41116      1.99992     7.29883    0.11241     9.41116
      H    2    0.64809      0.00000     0.33605    0.01585     0.35191
      I    3   -0.85177     45.98344     7.70398    0.16435    53.85177
      H    4    0.61475      0.00000     0.36280    0.02245     0.38525
 =======================================================================
   * Total *   -1.00009     47.98337    15.70166    0.31506    64.00009

 Normal termination of Gaussian 09 at Tue Oct 12 16:24:50 2021.
