 Gaussian 09, Revision E.01,
 Gaussian 09:  ES64L-G09RevE.01 30-Nov-2015

 --------------------------------------------------------
 #p pop=NBO SP NoSymm mp2/gen Pseudo=read density=current
 --------------------------------------------------------

 -----
 title
 -----
 Symbolic Z-matrix:
 Charge = -1 Multiplicity = 1

                          Input orientation:
 ---------------------------------------------------------------------
 Center     Atomic      Atomic             Coordinates (Angstroms)
 Number     Number       Type             X           Y           Z
 ---------------------------------------------------------------------
      1          8           0        0.000000    0.000000    0.000000
      2          1           0        0.960908    0.000000    0.000000
      3         53           0       -0.720970   -3.433628    0.000000
      4          1           0       -0.205492   -0.978659    0.000000
 ---------------------------------------------------------------------

 SCF Done:  E(RHF) =  -370.815602685     A.U. after   12 cycles
 E2 =    -0.4979470051D+00 EUMP2 =    -0.37131354969050D+03

 Alpha  occ. eigenvalues --  -20.40274  -7.46757  -5.29314  -5.29285  -5.29281
 Alpha  occ. eigenvalues --   -2.02060  -2.02043  -2.02037  -2.02007  -2.02007
 Alpha  occ. eigenvalues --   -1.17944  -0.62940  -0.53573  -0.42580  -0.34515
 Alpha  occ. eigenvalues --   -0.14848  -0.14293  -0.14256
 Alpha virt. eigenvalues --    0.13245   0.16989   0.23325   0.24543   0.25226
 Alpha virt. eigenvalues --    0.27013   0.28858   0.29263   0.31258   0.33676
 Alpha virt. eigenvalues --    0.36668   0.37197   0.37576   0.39558   0.40942

 Mulliken charges:
               1
     1  O   -0.532748
     2  H    0.168836
     3  I   -0.907055
     4  H    0.270967
 Sum of Mulliken charges =  -1.00000

 Dipole moment (field-independent basis, Debye):
    X=              4.1353    Y=             13.5808    Z=             -0.0000  Tot=             14.1965
 Quadrupole moment (field-independent basis, Debye-Ang):
   XX=            -41.3708   YY=            -91.4875   ZZ=            -41.8860
   XY=             -9.8532   XZ=              0.0000   YZ=              0.0000

 Summary of Natural Population Analysis:

                                       Natural Population
                Natural  -----------------------------------------------
    Atom  No    Charge         Core      Valence    Rydberg      Total
 -----------------------------------------------------------------------
      O    1   -1.38477      1.99992     7.27648    0.10837     9.38477
      H    2    0.66441      0.00000     0.32952    0.00607     0.33559
      I    3   -0.97072     45.98396     7.81606    0.17070    53.97072
      H    4    0.69108      0.00000     0.28565    0.02327     0.30892
 =======================================================================
   * Total *   -1.00001     47.98388    15.70770    0.30842    64.00001

 Normal termination of Gaussian 09 at Tue Oct 12 16:22:42 2021.
