 Gaussian 16, Revision B.01,
 Gaussian 16:  ES64L-G16RevB.01 20-Dec-2017

 --------------------------------------------------------
 #p pop=NBO SP NoSymm mp2/gen Pseudo=read density=current
 --------------------------------------------------------

 -----
 title
 -----
 Symbolic Z-matrix:
 Charge = -1 Multiplicity = 1

                          Input orientation:
 ---------------------------------------------------------------------
 Center     Atomic      Atomic             Coordinates (Angstroms)
 Number     Number       Type             X           Y           Z
 ---------------------------------------------------------------------
      1          8           0        0.000000    0.000000    0.000000
      2          1           0        0.960908    0.000000    0.000000
      3         53           0       -0.720970   -3.433626    0.000000
      4          1           0       -0.215767   -1.027592    0.000000
 ---------------------------------------------------------------------

 SCF Done:  E(RHF) =  -370.810097869     A.U. after   12 cycles
 E2 =    -0.5006779341D+00 EUMP2 =    -0.37131077580291D+03

 Alpha  occ. eigenvalues --  -20.40124  -7.46968  -5.29532  -5.29494  -5.29489
 Alpha  occ. eigenvalues --   -2.02281  -2.02258  -2.02252  -2.02212  -2.02212
 Alpha  occ. eigenvalues --   -1.16525  -0.63180  -0.52043  -0.41703  -0.33910
 Alpha  occ. eigenvalues --   -0.15069  -0.14488  -0.14449
 Alpha virt. eigenvalues --    0.13333   0.17010   0.23289   0.24528   0.25159
 Alpha virt. eigenvalues --    0.27109   0.29056   0.29377   0.31253   0.33786
 Alpha virt. eigenvalues --    0.36639   0.37142   0.37533   0.39533   0.40890

 Mulliken charges:
               1
     1  O   -0.552002
     2  H    0.169885
     3  I   -0.886758
     4  H    0.268875
 Sum of Mulliken charges =  -1.00000

 Dipole moment (field-independent basis, Debye):
    X=              4.0656    Y=             13.3211    Z=             -0.0000  Tot=             13.9278
 Quadrupole moment (field-independent basis, Debye-Ang):
   XX=            -41.3176   YY=            -90.5386   ZZ=            -41.8703
   XY=             -9.6760   XZ=              0.0000   YZ=             -0.0000

 Summary of Natural Population Analysis:

                                       Natural Population
                Natural  -----------------------------------------------
    Atom  No    Charge         Core      Valence    Rydberg      Total
 -----------------------------------------------------------------------
      O    1   -1.00428      1.99969     6.89463    0.10996     9.00428
      H    2    0.44602      0.00000     0.54684    0.00714     0.55398
      I    3   -0.92477     45.98372     7.77326    0.16779    53.92477
      H    4    0.48298      0.00000     0.49444    0.02259     0.51702
 =======================================================================
   * Total *   -1.00005     47.98341    15.70916    0.30748    64.00005

 Normal termination of Gaussian 16 at Tue Oct 26 13:21:17 2021.
