 Gaussian 09, Revision E.01,
 Gaussian 09:  ES64L-G09RevE.01 30-Nov-2015

 --------------------------------------------------------
 #p pop=NBO SP NoSymm mp2/gen Pseudo=read density=current
 --------------------------------------------------------

 -----
 title
 -----
 Symbolic Z-matrix:
 Charge = -1 Multiplicity = 1

                          Input orientation:
 ---------------------------------------------------------------------
 Center     Atomic      Atomic             Coordinates (Angstroms)
 Number     Number       Type             X           Y           Z
 ---------------------------------------------------------------------
      1          8           0        0.000000    0.000000    0.000000
      2          1           0        0.960908    0.000000    0.000000
      3         53           0       -0.720970   -3.433628    0.000000
      4          1           0       -0.164394   -0.782927    0.000000
 ---------------------------------------------------------------------

 SCF Done:  E(RHF) =  -370.783521767     A.U. after   12 cycles
 E2 =    -0.4879661991D+00 EUMP2 =    -0.37127148796643D+03

 Alpha  occ. eigenvalues --  -20.39721  -7.46180  -5.28726  -5.28712  -5.28712
 Alpha  occ. eigenvalues --   -2.01464  -2.01459  -2.01456  -2.01441  -2.01440
 Alpha  occ. eigenvalues --   -1.25116  -0.62435  -0.60053  -0.45278  -0.36582
 Alpha  occ. eigenvalues --   -0.14175  -0.13735  -0.13703
 Alpha virt. eigenvalues --    0.12994   0.16836   0.23440   0.24518   0.25395
 Alpha virt. eigenvalues --    0.26686   0.28139   0.28647   0.31343   0.33217
 Alpha virt. eigenvalues --    0.36808   0.37328   0.37596   0.39626   0.40814

 Mulliken charges:
               1
     1  O   -0.371431
     2  H    0.176878
     3  I   -0.957270
     4  H    0.151824
 Sum of Mulliken charges =  -1.00000

 Dipole moment (field-independent basis, Debye):
    X=              4.3491    Y=             14.3218    Z=             -0.0000  Tot=             14.9676
 Quadrupole moment (field-independent basis, Debye-Ang):
   XX=            -41.4261   YY=            -94.0430   ZZ=            -41.8395
   XY=            -10.3353   XZ=             -0.0000   YZ=              0.0000

 Summary of Natural Population Analysis:

                                       Natural Population
                Natural  -----------------------------------------------
    Atom  No    Charge         Core      Valence    Rydberg      Total
 -----------------------------------------------------------------------
      O    1   -1.31895      1.99988     7.21581    0.10326     9.31895
      H    2    0.66034      0.00000     0.33396    0.00570     0.33966
      I    3   -0.98902     45.98404     7.83201    0.17297    53.98902
      H    4    0.64763      0.00000     0.32935    0.02302     0.35237
 =======================================================================
   * Total *   -1.00000     47.98392    15.71113    0.30495    64.00000

 Normal termination of Gaussian 09 at Tue Oct 12 16:21:29 2021.
