 Gaussian 16, Revision B.01,
 Gaussian 16:  ES64L-G16RevB.01 20-Dec-2017

 --------------------------------------------------------
 #p pop=NBO SP NoSymm mp2/gen Pseudo=read density=current
 --------------------------------------------------------

 -----
 title
 -----
 Symbolic Z-matrix:
 Charge = -1 Multiplicity = 1

                          Input orientation:
 ---------------------------------------------------------------------
 Center     Atomic      Atomic             Coordinates (Angstroms)
 Number     Number       Type             X           Y           Z
 ---------------------------------------------------------------------
      1          8           0        0.000000    0.000000    0.000000
      2          1           0        0.960908    0.000000    0.000000
      3         53           0       -0.720970   -3.433626    0.000000
      4          1           0       -0.256865   -1.223323    0.000000
 ---------------------------------------------------------------------

 SCF Done:  E(RHF) =  -370.772778136     A.U. after   12 cycles
 E2 =    -0.5120481046D+00 EUMP2 =    -0.37128482624087D+03

 Alpha  occ. eigenvalues --  -20.38193  -7.48222  -5.30831  -5.30725  -5.30720
 Alpha  occ. eigenvalues --   -2.03595  -2.03537  -2.03531  -2.03417  -2.03417
 Alpha  occ. eigenvalues --   -1.11412  -0.64569  -0.46523  -0.37409  -0.30866
 Alpha  occ. eigenvalues --   -0.16197  -0.15589  -0.15545
 Alpha virt. eigenvalues --    0.13828   0.17010   0.23085   0.24344   0.24766
 Alpha virt. eigenvalues --    0.27592   0.29732   0.29943   0.31359   0.34157
 Alpha virt. eigenvalues --    0.36485   0.36775   0.37089   0.39336   0.40051

 Mulliken charges:
               1
     1  O   -0.592347
     2  H    0.167145
     3  I   -0.766974
     4  H    0.192176
 Sum of Mulliken charges =  -1.00000

 Dipole moment (field-independent basis, Debye):
    X=              3.6991    Y=             11.8986    Z=             -0.0000  Tot=             12.4604
 Quadrupole moment (field-independent basis, Debye-Ang):
   XX=            -40.9200   YY=            -85.2140   ZZ=            -41.6847
   XY=             -8.6856   XZ=              0.0000   YZ=              0.0000

 Summary of Natural Population Analysis:

                                       Natural Population
                Natural  -----------------------------------------------
    Atom  No    Charge         Core      Valence    Rydberg      Total
 -----------------------------------------------------------------------
      O    1   -1.04520      1.99971     6.93527    0.11022     9.04520
      H    2    0.43247      0.00000     0.55426    0.01328     0.56753
      I    3   -0.81446     45.98297     7.66734    0.16415    53.81446
      H    4    0.42713      0.00000     0.54950    0.02336     0.57287
 =======================================================================
   * Total *   -1.00006     47.98268    15.70636    0.31101    64.00006

 Normal termination of Gaussian 16 at Tue Oct 26 13:22:06 2021.
