 Gaussian 09, Revision E.01,
 Gaussian 09:  ES64L-G09RevE.01 30-Nov-2015

 --------------------------------------------------------
 #p pop=NBO SP NoSymm mp2/gen Pseudo=read density=current
 --------------------------------------------------------

 -----
 title
 -----
 Symbolic Z-matrix:
 Charge = -1 Multiplicity = 1

                          Input orientation:
 ---------------------------------------------------------------------
 Center     Atomic      Atomic             Coordinates (Angstroms)
 Number     Number       Type             X           Y           Z
 ---------------------------------------------------------------------
      1          8           0        0.000000    0.000000    0.000000
      2          1           0        0.960908    0.000000    0.000000
      3         53           0       -0.720970   -3.433628    0.000000
      4          1           0       -0.246590   -1.174391    0.000000
 ---------------------------------------------------------------------

 SCF Done:  E(RHF) =  -370.782999423     A.U. after   12 cycles
 E2 =    -0.5091905034D+00 EUMP2 =    -0.37129218992631D+03

 Alpha  occ. eigenvalues --  -20.38882  -7.47838  -5.30433  -5.30349  -5.30343
 Alpha  occ. eigenvalues --   -2.03192  -2.03145  -2.03139  -2.03049  -2.03049
 Alpha  occ. eigenvalues --   -1.12657  -0.64149  -0.47833  -0.38570  -0.31738
 Alpha  occ. eigenvalues --   -0.15880  -0.15258  -0.15216
 Alpha virt. eigenvalues --    0.13681   0.17025   0.23150   0.24412   0.24886
 Alpha virt. eigenvalues --    0.27453   0.29647   0.29706   0.31319   0.34080
 Alpha virt. eigenvalues --    0.36538   0.36894   0.37249   0.39404   0.40325

 Mulliken charges:
               1
     1  O   -0.581381
     2  H    0.169422
     3  I   -0.803013
     4  H    0.214972
 Sum of Mulliken charges =  -1.00000

 Dipole moment (field-independent basis, Debye):
    X=              3.8045    Y=             12.3137    Z=              0.0000  Tot=             12.8881
 Quadrupole moment (field-independent basis, Debye-Ang):
   XX=            -41.0469   YY=            -86.7768   ZZ=            -41.7488
   XY=             -8.9760   XZ=             -0.0000   YZ=             -0.0000

 Summary of Natural Population Analysis:

                                       Natural Population
                Natural  -----------------------------------------------
    Atom  No    Charge         Core      Valence    Rydberg      Total
 -----------------------------------------------------------------------
      O    1   -1.40333      1.99992     7.29583    0.10758     9.40333
      H    2    0.65365      0.00000     0.33179    0.01455     0.34635
      I    3   -0.91688     45.98371     7.76598    0.16719    53.91688
      H    4    0.66654      0.00000     0.31104    0.02242     0.33346
 =======================================================================
   * Total *   -1.00001     47.98363    15.70464    0.31174    64.00001

 Normal termination of Gaussian 09 at Tue Oct 12 16:23:55 2021.
