 Gaussian 16, Revision B.01,
 Gaussian 16:  ES64L-G16RevB.01 20-Dec-2017

 --------------------------------------------------------
 #p pop=NBO SP NoSymm mp2/gen Pseudo=read density=current
 --------------------------------------------------------

 -----
 title
 -----
 Symbolic Z-matrix:
 Charge = -1 Multiplicity = 1

                          Input orientation:
 ---------------------------------------------------------------------
 Center     Atomic      Atomic             Coordinates (Angstroms)
 Number     Number       Type             X           Y           Z
 ---------------------------------------------------------------------
      1          8           0        0.000000    0.000000    0.000000
      2          1           0        0.960908    0.000000    0.000000
      3         53           0       -0.720970   -3.433626    0.000000
      4          1           0       -0.154119   -0.733994    0.000000
 ---------------------------------------------------------------------

 SCF Done:  E(RHF) =  -370.748683889     A.U. after   12 cycles
 E2 =    -0.4857836454D+00 EUMP2 =    -0.37123446753397D+03

 Alpha  occ. eigenvalues --  -20.39346  -7.46085  -5.28630  -5.28617  -5.28616
 Alpha  occ. eigenvalues --   -2.01366  -2.01362  -2.01361  -2.01345  -2.01345
 Alpha  occ. eigenvalues --   -1.27445  -0.62799  -0.61285  -0.45798  -0.37048
 Alpha  occ. eigenvalues --   -0.14050  -0.13637  -0.13605
 Alpha virt. eigenvalues --    0.12951   0.16784   0.23457   0.24494   0.25419
 Alpha virt. eigenvalues --    0.26613   0.27975   0.28480   0.31351   0.33101
 Alpha virt. eigenvalues --    0.36848   0.37346   0.37575   0.39645   0.40755

 Mulliken charges:
               1
     1  O   -0.332391
     2  H    0.181828
     3  I   -0.964160
     4  H    0.114724
 Sum of Mulliken charges =  -1.00000

 Dipole moment (field-independent basis, Debye):
    X=              4.3911    Y=             14.4498    Z=             -0.0000  Tot=             15.1023
 Quadrupole moment (field-independent basis, Debye-Ang):
   XX=            -41.4072   YY=            -94.4377   ZZ=            -41.8049
   XY=            -10.4109   XZ=              0.0000   YZ=              0.0000

 Summary of Natural Population Analysis:

                                       Natural Population
                Natural  -----------------------------------------------
    Atom  No    Charge         Core      Valence    Rydberg      Total
 -----------------------------------------------------------------------
      O    1   -0.86307      1.99949     6.76530    0.09828     8.86307
      H    2    0.43723      0.00000     0.55089    0.01189     0.56277
      I    3   -0.98635     45.98405     7.82988    0.17242    53.98635
      H    4    0.41219      0.00000     0.56691    0.02090     0.58781
 =======================================================================
   * Total *   -1.00000     47.98354    15.71297    0.30349    64.00000

 Normal termination of Gaussian 16 at Tue Oct 26 13:20:06 2021.
