 Gaussian 09, Revision E.01,
 Gaussian 09:  ES64L-G09RevE.01 30-Nov-2015

 --------------------------------------------------------
 #p pop=NBO SP NoSymm mp2/gen Pseudo=read density=current
 --------------------------------------------------------

 -----
 title
 -----
 Symbolic Z-matrix:
 Charge = -1 Multiplicity = 1

                          Input orientation:
 ---------------------------------------------------------------------
 Center     Atomic      Atomic             Coordinates (Angstroms)
 Number     Number       Type             X           Y           Z
 ---------------------------------------------------------------------
      1          8           0        0.000000    0.000000    0.000000
      2          1           0        0.960908    0.000000    0.000000
      3         53           0       -0.720970   -3.433628    0.000000
      4          1           0       -0.267140   -1.272256    0.000000
 ---------------------------------------------------------------------

 SCF Done:  E(RHF) =  -370.762748875     A.U. after   12 cycles
 E2 =    -0.5148389838D+00 EUMP2 =    -0.37127758785866D+03

 Alpha  occ. eigenvalues --  -20.37368  -7.48658  -5.31284  -5.31153  -5.31148
 Alpha  occ. eigenvalues --   -2.04054  -2.03983  -2.03977  -2.03834  -2.03834
 Alpha  occ. eigenvalues --   -1.10157  -0.65044  -0.45235  -0.36238  -0.29913
 Alpha  occ. eigenvalues --   -0.16529  -0.15961  -0.15915
 Alpha virt. eigenvalues --    0.13991   0.16983   0.23006   0.24261   0.24631
 Alpha virt. eigenvalues --    0.27741   0.29821   0.30191   0.31403   0.34218
 Alpha virt. eigenvalues --    0.36412   0.36635   0.36901   0.39257   0.39801

 Mulliken charges:
               1
     1  O   -0.606853
     2  H    0.163880
     3  I   -0.726899
     4  H    0.169872
 Sum of Mulliken charges =  -1.00000

 Dipole moment (field-independent basis, Debye):
    X=              3.5850    Y=             11.4471    Z=              0.0000  Tot=             11.9954
 Quadrupole moment (field-independent basis, Debye-Ang):
   XX=            -40.7771   YY=            -83.5151   ZZ=            -41.6112
   XY=             -8.3698   XZ=              0.0000   YZ=             -0.0000

 Summary of Natural Population Analysis:

                                       Natural Population
                Natural  -----------------------------------------------
    Atom  No    Charge         Core      Valence    Rydberg      Total
 -----------------------------------------------------------------------
      O    1   -1.40861      1.99992     7.29797    0.11072     9.40861
      H    2    0.65016      0.00000     0.33451    0.01533     0.34984
      I    3   -0.87542     45.98353     7.72652    0.16537    53.87542
      H    4    0.63381      0.00000     0.34374    0.02245     0.36619
 =======================================================================
   * Total *   -1.00006     47.98345    15.70273    0.31388    64.00006

 Normal termination of Gaussian 09 at Tue Oct 12 16:24:32 2021.
