 Gaussian 16, Revision B.01,
 Gaussian 16:  ES64L-G16RevB.01 20-Dec-2017

 --------------------------------------------------------
 #p pop=NBO SP NoSymm mp2/gen Pseudo=read density=current
 --------------------------------------------------------

 -----
 title
 -----
 Symbolic Z-matrix:
 Charge = -1 Multiplicity = 1

                          Input orientation:
 ---------------------------------------------------------------------
 Center     Atomic      Atomic             Coordinates (Angstroms)
 Number     Number       Type             X           Y           Z
 ---------------------------------------------------------------------
      1          8           0        0.000000    0.000000    0.000000
      2          1           0        0.960908    0.000000    0.000000
      3         53           0       -0.720970   -3.433626    0.000000
      4          1           0       -0.205492   -0.978659    0.000000
 ---------------------------------------------------------------------

 SCF Done:  E(RHF) =  -370.815602659     A.U. after   12 cycles
 E2 =    -0.4979470321D+00 EUMP2 =    -0.37131354969106D+03

 Alpha  occ. eigenvalues --  -20.40274  -7.46757  -5.29314  -5.29285  -5.29281
 Alpha  occ. eigenvalues --   -2.02060  -2.02043  -2.02037  -2.02007  -2.02007
 Alpha  occ. eigenvalues --   -1.17944  -0.62940  -0.53573  -0.42580  -0.34515
 Alpha  occ. eigenvalues --   -0.14848  -0.14293  -0.14256
 Alpha virt. eigenvalues --    0.13245   0.16989   0.23325   0.24543   0.25226
 Alpha virt. eigenvalues --    0.27014   0.28858   0.29263   0.31258   0.33676
 Alpha virt. eigenvalues --    0.36668   0.37197   0.37576   0.39558   0.40942

 Mulliken charges:
               1
     1  O   -0.532748
     2  H    0.168836
     3  I   -0.907054
     4  H    0.270967
 Sum of Mulliken charges =  -1.00000

 Dipole moment (field-independent basis, Debye):
    X=              4.1353    Y=             13.5808    Z=             -0.0000  Tot=             14.1965
 Quadrupole moment (field-independent basis, Debye-Ang):
   XX=            -41.3708   YY=            -91.4874   ZZ=            -41.8860
   XY=             -9.8532   XZ=             -0.0000   YZ=              0.0000

 Summary of Natural Population Analysis:

                                       Natural Population
                Natural  -----------------------------------------------
    Atom  No    Charge         Core      Valence    Rydberg      Total
 -----------------------------------------------------------------------
      O    1   -0.98802      1.99968     6.88000    0.10834     8.98802
      H    2    0.44698      0.00000     0.54610    0.00692     0.55302
      I    3   -0.94327     45.98384     7.79067    0.16876    53.94327
      H    4    0.48428      0.00000     0.49350    0.02221     0.51572
 =======================================================================
   * Total *   -1.00003     47.98352    15.71028    0.30624    64.00003

 Normal termination of Gaussian 16 at Tue Oct 26 13:21:05 2021.
