 Gaussian 09, Revision E.01,
 Gaussian 09:  ES64L-G09RevE.01 30-Nov-2015

 --------------------------------------------------------
 #p pop=NBO SP NoSymm mp2/gen Pseudo=read density=current
 --------------------------------------------------------

 -----
 title
 -----
 Symbolic Z-matrix:
 Charge = -1 Multiplicity = 1

                          Input orientation:
 ---------------------------------------------------------------------
 Center     Atomic      Atomic             Coordinates (Angstroms)
 Number     Number       Type             X           Y           Z
 ---------------------------------------------------------------------
      1          8           0        0.000000    0.000000    0.000000
      2          1           0        0.960908    0.000000    0.000000
      3         53           0       -0.720970   -3.433628    0.000000
      4          1           0       -0.236316   -1.125458    0.000000
 ---------------------------------------------------------------------

 SCF Done:  E(RHF) =  -370.793005039     A.U. after   12 cycles
 E2 =    -0.5063200854D+00 EUMP2 =    -0.37129932512413D+03

 Alpha  occ. eigenvalues --  -20.39432  -7.47504  -5.30086  -5.30021  -5.30015
 Alpha  occ. eigenvalues --   -2.02842  -2.02804  -2.02798  -2.02728  -2.02728
 Alpha  occ. eigenvalues --   -1.13910  -0.63780  -0.49180  -0.39688  -0.32531
 Alpha  occ. eigenvalues --   -0.15585  -0.14967  -0.14925
 Alpha virt. eigenvalues --    0.13550   0.17029   0.23204   0.24464   0.24991
 Alpha virt. eigenvalues --    0.27327   0.29479   0.29564   0.31286   0.33990
 Alpha virt. eigenvalues --    0.36578   0.36993   0.37374   0.39458   0.40578

 Mulliken charges:
               1
     1  O   -0.572720
     2  H    0.170590
     3  I   -0.834928
     4  H    0.237057
 Sum of Mulliken charges =  -1.00000

 Dipole moment (field-independent basis, Debye):
    X=              3.9008    Y=             12.6894    Z=             -0.0000  Tot=             13.2754
 Quadrupole moment (field-independent basis, Debye-Ang):
   XX=            -41.1560   YY=            -88.1880   ZZ=            -41.8016
   XY=             -9.2383   XZ=              0.0000   YZ=              0.0000

 Summary of Natural Population Analysis:

                                       Natural Population
                Natural  -----------------------------------------------
    Atom  No    Charge         Core      Valence    Rydberg      Total
 -----------------------------------------------------------------------
      O    1   -1.40375      1.99992     7.29237    0.11146     9.40375
      H    2    0.65982      0.00000     0.33116    0.00902     0.34018
      I    3   -0.93424     45.98379     7.78230    0.16815    53.93424
      H    4    0.67814      0.00000     0.29901    0.02285     0.32186
 =======================================================================
   * Total *   -1.00003     47.98371    15.70483    0.31149    64.00003

 Normal termination of Gaussian 09 at Tue Oct 12 16:23:36 2021.
