 Gaussian 16, Revision B.01,
 Gaussian 16:  ES64L-G16RevB.01 20-Dec-2017

 --------------------------------------------------------
 #p pop=NBO SP NoSymm mp2/gen Pseudo=read density=current
 --------------------------------------------------------

 -----
 title
 -----
 Symbolic Z-matrix:
 Charge = -1 Multiplicity = 1

                          Input orientation:
 ---------------------------------------------------------------------
 Center     Atomic      Atomic             Coordinates (Angstroms)
 Number     Number       Type             X           Y           Z
 ---------------------------------------------------------------------
      1          8           0        0.000000    0.000000    0.000000
      2          1           0        0.960908    0.000000    0.000000
      3         53           0       -0.720970   -3.433626    0.000000
      4          1           0       -0.246591   -1.174390    0.000000
 ---------------------------------------------------------------------

 SCF Done:  E(RHF) =  -370.782999404     A.U. after   12 cycles
 E2 =    -0.5091905377D+00 EUMP2 =    -0.37129218994209D+03

 Alpha  occ. eigenvalues --  -20.38882  -7.47838  -5.30433  -5.30349  -5.30343
 Alpha  occ. eigenvalues --   -2.03192  -2.03145  -2.03139  -2.03049  -2.03049
 Alpha  occ. eigenvalues --   -1.12657  -0.64149  -0.47833  -0.38570  -0.31738
 Alpha  occ. eigenvalues --   -0.15880  -0.15258  -0.15216
 Alpha virt. eigenvalues --    0.13681   0.17025   0.23150   0.24412   0.24886
 Alpha virt. eigenvalues --    0.27453   0.29647   0.29706   0.31319   0.34080
 Alpha virt. eigenvalues --    0.36538   0.36894   0.37249   0.39404   0.40325

 Mulliken charges:
               1
     1  O   -0.581382
     2  H    0.169422
     3  I   -0.803012
     4  H    0.214972
 Sum of Mulliken charges =  -1.00000

 Dipole moment (field-independent basis, Debye):
    X=              3.8045    Y=             12.3137    Z=             -0.0000  Tot=             12.8881
 Quadrupole moment (field-independent basis, Debye-Ang):
   XX=            -41.0469   YY=            -86.7767   ZZ=            -41.7488
   XY=             -8.9760   XZ=             -0.0000   YZ=             -0.0000

 Summary of Natural Population Analysis:

                                       Natural Population
                Natural  -----------------------------------------------
    Atom  No    Charge         Core      Valence    Rydberg      Total
 -----------------------------------------------------------------------
      O    1   -1.03677      1.99971     6.92815    0.10892     9.03677
      H    2    0.43521      0.00000     0.55196    0.01283     0.56479
      I    3   -0.84672     45.98318     7.69856    0.16497    53.84672
      H    4    0.44825      0.00000     0.52862    0.02313     0.55175
 =======================================================================
   * Total *   -1.00004     47.98289    15.70728    0.30987    64.00004

 Normal termination of Gaussian 16 at Tue Oct 26 13:21:54 2021.
