 Gaussian 16, Revision B.01,
 Gaussian 16:  ES64L-G16RevB.01 20-Dec-2017

 --------------------------------------------------------
 #p pop=NBO SP NoSymm mp2/gen Pseudo=read density=current
 --------------------------------------------------------

 -----
 title
 -----
 Symbolic Z-matrix:
 Charge = -1 Multiplicity = 1

                          Input orientation:
 ---------------------------------------------------------------------
 Center     Atomic      Atomic             Coordinates (Angstroms)
 Number     Number       Type             X           Y           Z
 ---------------------------------------------------------------------
      1          8           0        0.000000    0.000000    0.000000
      2          1           0        0.960908    0.000000    0.000000
      3         53           0       -0.720970   -3.433626    0.000000
      4          1           0       -0.236316   -1.125458    0.000000
 ---------------------------------------------------------------------

 SCF Done:  E(RHF) =  -370.793005016     A.U. after   12 cycles
 E2 =    -0.5063201182D+00 EUMP2 =    -0.37129932513456D+03

 Alpha  occ. eigenvalues --  -20.39432  -7.47504  -5.30086  -5.30021  -5.30015
 Alpha  occ. eigenvalues --   -2.02842  -2.02804  -2.02798  -2.02728  -2.02728
 Alpha  occ. eigenvalues --   -1.13910  -0.63780  -0.49180  -0.39688  -0.32531
 Alpha  occ. eigenvalues --   -0.15585  -0.14967  -0.14925
 Alpha virt. eigenvalues --    0.13550   0.17029   0.23204   0.24464   0.24991
 Alpha virt. eigenvalues --    0.27327   0.29479   0.29564   0.31286   0.33990
 Alpha virt. eigenvalues --    0.36578   0.36993   0.37374   0.39458   0.40578

 Mulliken charges:
               1
     1  O   -0.572720
     2  H    0.170590
     3  I   -0.834927
     4  H    0.237057
 Sum of Mulliken charges =  -1.00000

 Dipole moment (field-independent basis, Debye):
    X=              3.9008    Y=             12.6894    Z=             -0.0000  Tot=             13.2754
 Quadrupole moment (field-independent basis, Debye-Ang):
   XX=            -41.1560   YY=            -88.1879   ZZ=            -41.8016
   XY=             -9.2383   XZ=              0.0000   YZ=              0.0000

 Summary of Natural Population Analysis:

                                       Natural Population
                Natural  -----------------------------------------------
    Atom  No    Charge         Core      Valence    Rydberg      Total
 -----------------------------------------------------------------------
      O    1   -1.02660      1.99970     6.91939    0.10751     9.02660
      H    2    0.43759      0.00000     0.54995    0.01246     0.56241
      I    3   -0.87612     45.98338     7.72692    0.16582    53.87612
      H    4    0.46511      0.00000     0.51211    0.02278     0.53489
 =======================================================================
   * Total *   -1.00002     47.98308    15.70837    0.30857    64.00002

 Normal termination of Gaussian 16 at Tue Oct 26 13:21:42 2021.
