 Gaussian 09, Revision E.01,
 Gaussian 09:  ES64L-G09RevE.01 30-Nov-2015

 --------------------------------------------------------
 #p pop=NBO SP NoSymm mp2/gen Pseudo=read density=current
 --------------------------------------------------------

 -----
 title
 -----
 Symbolic Z-matrix:
 Charge = -1 Multiplicity = 1

                          Input orientation:
 ---------------------------------------------------------------------
 Center     Atomic      Atomic             Coordinates (Angstroms)
 Number     Number       Type             X           Y           Z
 ---------------------------------------------------------------------
      1          8           0        0.000000    0.000000    0.000000
      2          1           0        0.960908    0.000000    0.000000
      3         53           0       -0.720970   -3.433628    0.000000
      4          1           0       -0.297964   -1.419055    0.000000
 ---------------------------------------------------------------------

 SCF Done:  E(RHF) =  -370.736506773     A.U. after   12 cycles
 E2 =    -0.5220547649D+00 EUMP2 =    -0.37125856153807D+03

 Alpha  occ. eigenvalues --  -20.34186  -7.50269  -5.32958  -5.32732  -5.32727
 Alpha  occ. eigenvalues --   -2.05749  -2.05628  -2.05622  -2.05375  -2.05375
 Alpha  occ. eigenvalues --   -1.06280  -0.66800  -0.41406  -0.33081  -0.26604
 Alpha  occ. eigenvalues --   -0.17463  -0.17303  -0.17259
 Alpha virt. eigenvalues --    0.14570   0.16810   0.22657   0.23911   0.24142
 Alpha virt. eigenvalues --    0.28213   0.30125   0.30965   0.31544   0.34325
 Alpha virt. eigenvalues --    0.35989   0.36082   0.36351   0.38964   0.39500

 Mulliken charges:
               1
     1  O   -0.673169
     2  H    0.150033
     3  I   -0.586408
     4  H    0.109544
 Sum of Mulliken charges =  -1.00000

 Dipole moment (field-independent basis, Debye):
    X=              3.2039    Y=              9.9288    Z=             -0.0000  Tot=             10.4329
 Quadrupole moment (field-independent basis, Debye-Ang):
   XX=            -40.2821   YY=            -77.8563   ZZ=            -41.3565
   XY=             -7.3148   XZ=              0.0000   YZ=              0.0000

 Summary of Natural Population Analysis:

                                       Natural Population
                Natural  -----------------------------------------------
    Atom  No    Charge         Core      Valence    Rydberg      Total
 -----------------------------------------------------------------------
      O    1   -1.41875      1.99992     7.30258    0.11625     9.41875
      H    2    0.64353      0.00000     0.33926    0.01720     0.35647
      I    3   -0.80086     45.98327     7.65554    0.16205    53.80086
      H    4    0.57593      0.00000     0.40143    0.02264     0.42407
 =======================================================================
   * Total *   -1.00016     47.98320    15.69881    0.31815    64.00016

 Normal termination of Gaussian 09 at Tue Oct 12 16:25:27 2021.
