 Gaussian 09, Revision E.01,
 Gaussian 09:  ES64L-G09RevE.01 30-Nov-2015

 --------------------------------------------------------
 #p pop=NBO SP NoSymm mp2/gen Pseudo=read density=current
 --------------------------------------------------------

 -----
 title
 -----
 Symbolic Z-matrix:
 Charge = -1 Multiplicity = 1

                          Input orientation:
 ---------------------------------------------------------------------
 Center     Atomic      Atomic             Coordinates (Angstroms)
 Number     Number       Type             X           Y           Z
 ---------------------------------------------------------------------
      1          8           0        0.000000    0.000000    0.000000
      2          1           0        0.960908    0.000000    0.000000
      3         53           0       -0.720970   -3.433628    0.000000
      4          1           0       -0.308238   -1.467988    0.000000
 ---------------------------------------------------------------------

 SCF Done:  E(RHF) =  -370.729555567     A.U. after   12 cycles
 E2 =    -0.5237959973D+00 EUMP2 =    -0.37125335156470D+03

 Alpha  occ. eigenvalues --  -20.32956  -7.50887  -5.33601  -5.33339  -5.33334
 Alpha  occ. eigenvalues --   -2.06402  -2.06260  -2.06254  -2.05967  -2.05967
 Alpha  occ. eigenvalues --   -1.04964  -0.67488  -0.40151  -0.32305  -0.25396
 Alpha  occ. eigenvalues --   -0.17849  -0.17769  -0.17634
 Alpha virt. eigenvalues --    0.14784   0.16720   0.22503   0.23766   0.23959
 Alpha virt. eigenvalues --    0.28353   0.30240   0.31216   0.31594   0.34372
 Alpha virt. eigenvalues --    0.35783   0.35858   0.36217   0.38863   0.39563

 Mulliken charges:
               1
     1  O   -0.701557
     2  H    0.144696
     3  I   -0.535150
     4  H    0.092011
 Sum of Mulliken charges =  -1.00000

 Dipole moment (field-independent basis, Debye):
    X=              3.0685    Y=              9.3877    Z=              0.0000  Tot=              9.8764
 Quadrupole moment (field-independent basis, Debye-Ang):
   XX=            -40.1051   YY=            -75.8713   ZZ=            -41.2678
   XY=             -6.9431   XZ=             -0.0000   YZ=             -0.0000

 Summary of Natural Population Analysis:

                                       Natural Population
                Natural  -----------------------------------------------
    Atom  No    Charge         Core      Valence    Rydberg      Total
 -----------------------------------------------------------------------
      O    1   -1.42471      1.99992     7.30637    0.11841     9.42471
      H    2    0.64113      0.00000     0.34085    0.01803     0.35887
      I    3   -0.77468     45.98319     7.63068    0.16080    53.77468
      H    4    0.55807      0.00000     0.41904    0.02289     0.44193
 =======================================================================
   * Total *   -1.00019     47.98312    15.69694    0.32013    64.00019

 Normal termination of Gaussian 09 at Tue Oct 12 16:25:46 2021.
