 Gaussian 16, Revision B.01,
 Gaussian 16:  ES64L-G16RevB.01 20-Dec-2017

 --------------------------------------------------------
 #p pop=NBO SP NoSymm mp2/gen Pseudo=read density=current
 --------------------------------------------------------

 -----
 title
 -----
 Symbolic Z-matrix:
 Charge = -1 Multiplicity = 1

                          Input orientation:
 ---------------------------------------------------------------------
 Center     Atomic      Atomic             Coordinates (Angstroms)
 Number     Number       Type             X           Y           Z
 ---------------------------------------------------------------------
      1          8           0        0.000000    0.000000    0.000000
      2          1           0        0.960908    0.000000    0.000000
      3         53           0       -0.720970   -3.433626    0.000000
      4          1           0       -0.267140   -1.272256    0.000000
 ---------------------------------------------------------------------

 SCF Done:  E(RHF) =  -370.762748868     A.U. after   12 cycles
 E2 =    -0.5148390189D+00 EUMP2 =    -0.37127758788725D+03

 Alpha  occ. eigenvalues --  -20.37368  -7.48658  -5.31284  -5.31153  -5.31148
 Alpha  occ. eigenvalues --   -2.04054  -2.03983  -2.03977  -2.03834  -2.03834
 Alpha  occ. eigenvalues --   -1.10157  -0.65044  -0.45235  -0.36238  -0.29913
 Alpha  occ. eigenvalues --   -0.16529  -0.15961  -0.15915
 Alpha virt. eigenvalues --    0.13991   0.16983   0.23006   0.24261   0.24631
 Alpha virt. eigenvalues --    0.27741   0.29821   0.30191   0.31403   0.34218
 Alpha virt. eigenvalues --    0.36412   0.36635   0.36901   0.39257   0.39801

 Mulliken charges:
               1
     1  O   -0.606854
     2  H    0.163880
     3  I   -0.726898
     4  H    0.169872
 Sum of Mulliken charges =  -1.00000

 Dipole moment (field-independent basis, Debye):
    X=              3.5850    Y=             11.4471    Z=              0.0000  Tot=             11.9954
 Quadrupole moment (field-independent basis, Debye-Ang):
   XX=            -40.7771   YY=            -83.5150   ZZ=            -41.6112
   XY=             -8.3698   XZ=             -0.0000   YZ=             -0.0000

 Summary of Natural Population Analysis:

                                       Natural Population
                Natural  -----------------------------------------------
    Atom  No    Charge         Core      Valence    Rydberg      Total
 -----------------------------------------------------------------------
      O    1   -1.05249      1.99971     6.94130    0.11148     9.05249
      H    2    0.42945      0.00000     0.55676    0.01379     0.57055
      I    3   -0.77980     45.98277     7.63372    0.16330    53.77980
      H    4    0.40275      0.00000     0.57378    0.02347     0.59725
 =======================================================================
   * Total *   -1.00009     47.98248    15.70557    0.31204    64.00009

 Normal termination of Gaussian 16 at Tue Oct 26 13:22:18 2021.
