 Gaussian 16, Revision B.01,
 Gaussian 16:  ES64L-G16RevB.01 20-Dec-2017

 --------------------------------------------------------
 #p pop=NBO SP NoSymm mp2/gen Pseudo=read density=current
 --------------------------------------------------------

 -----
 title
 -----
 Symbolic Z-matrix:
 Charge = -1 Multiplicity = 1

                          Input orientation:
 ---------------------------------------------------------------------
 Center     Atomic      Atomic             Coordinates (Angstroms)
 Number     Number       Type             X           Y           Z
 ---------------------------------------------------------------------
      1          8           0        0.000000    0.000000    0.000000
      2          1           0        0.960908    0.000000    0.000000
      3         53           0       -0.720970   -3.433626    0.000000
      4          1           0       -0.174668   -0.831860    0.000000
 ---------------------------------------------------------------------

 SCF Done:  E(RHF) =  -370.804101891     A.U. after   12 cycles
 E2 =    -0.4902890375D+00 EUMP2 =    -0.37129439092854D+03

 Alpha  occ. eigenvalues --  -20.40014  -7.46292  -5.28839  -5.28824  -5.28822
 Alpha  occ. eigenvalues --   -2.01578  -2.01571  -2.01568  -2.01552  -2.01551
 Alpha  occ. eigenvalues --   -1.23031  -0.62456  -0.58454  -0.44706  -0.36102
 Alpha  occ. eigenvalues --   -0.14316  -0.13848  -0.13814
 Alpha virt. eigenvalues --    0.13044   0.16883   0.23416   0.24536   0.25365
 Alpha virt. eigenvalues --    0.26762   0.28309   0.28815   0.31324   0.33333
 Alpha virt. eigenvalues --    0.36769   0.37306   0.37608   0.39609   0.40869

 Mulliken charges:
               1
     1  O   -0.417674
     2  H    0.172402
     3  I   -0.948610
     4  H    0.193882
 Sum of Mulliken charges =  -1.00000

 Dipole moment (field-independent basis, Debye):
    X=              4.3035    Y=             14.1741    Z=             -0.0000  Tot=             14.8130
 Quadrupole moment (field-independent basis, Debye-Ang):
   XX=            -41.4332   YY=            -93.5634   ZZ=            -41.8657
   XY=            -10.2440   XZ=             -0.0000   YZ=             -0.0000

 Summary of Natural Population Analysis:

                                       Natural Population
                Natural  -----------------------------------------------
    Atom  No    Charge         Core      Valence    Rydberg      Total
 -----------------------------------------------------------------------
      O    1   -0.92249      1.99961     6.82345    0.09943     8.92249
      H    2    0.44094      0.00000     0.54734    0.01172     0.55906
      I    3   -0.97679     45.98401     7.82161    0.17117    53.97679
      H    4    0.45834      0.00000     0.52106    0.02060     0.54166
 =======================================================================
   * Total *   -1.00000     47.98362    15.71346    0.30292    64.00000

 Normal termination of Gaussian 16 at Tue Oct 26 13:20:30 2021.
