 Gaussian 09, Revision E.01,
 Gaussian 09:  ES64L-G09RevE.01 30-Nov-2015

 --------------------------------------------------------
 #p pop=NBO SP NoSymm mp2/gen Pseudo=read density=current
 --------------------------------------------------------

 -----
 title
 -----
 Symbolic Z-matrix:
 Charge = -1 Multiplicity = 1

                          Input orientation:
 ---------------------------------------------------------------------
 Center     Atomic      Atomic             Coordinates (Angstroms)
 Number     Number       Type             X           Y           Z
 ---------------------------------------------------------------------
      1          8           0        0.000000    0.000000    0.000000
      2          1           0        0.960908    0.000000    0.000000
      3         53           0       -0.720970   -3.433628    0.000000
      4          1           0       -0.154119   -0.733994    0.000000
 ---------------------------------------------------------------------

 SCF Done:  E(RHF) =  -370.748683909     A.U. after   12 cycles
 E2 =    -0.4857836260D+00 EUMP2 =    -0.37123446753490D+03

 Alpha  occ. eigenvalues --  -20.39346  -7.46085  -5.28630  -5.28617  -5.28616
 Alpha  occ. eigenvalues --   -2.01366  -2.01362  -2.01361  -2.01345  -2.01345
 Alpha  occ. eigenvalues --   -1.27445  -0.62799  -0.61285  -0.45798  -0.37048
 Alpha  occ. eigenvalues --   -0.14050  -0.13637  -0.13605
 Alpha virt. eigenvalues --    0.12951   0.16784   0.23457   0.24494   0.25419
 Alpha virt. eigenvalues --    0.26613   0.27975   0.28480   0.31351   0.33101
 Alpha virt. eigenvalues --    0.36848   0.37346   0.37575   0.39645   0.40755

 Mulliken charges:
               1
     1  O   -0.332391
     2  H    0.181828
     3  I   -0.964160
     4  H    0.114724
 Sum of Mulliken charges =  -1.00000

 Dipole moment (field-independent basis, Debye):
    X=              4.3911    Y=             14.4498    Z=             -0.0000  Tot=             15.1023
 Quadrupole moment (field-independent basis, Debye-Ang):
   XX=            -41.4072   YY=            -94.4378   ZZ=            -41.8049
   XY=            -10.4109   XZ=              0.0000   YZ=              0.0000

 Summary of Natural Population Analysis:

                                       Natural Population
                Natural  -----------------------------------------------
    Atom  No    Charge         Core      Valence    Rydberg      Total
 -----------------------------------------------------------------------
      O    1   -1.27383      1.99985     7.19061    0.08337     9.27383
      H    2    0.65188      0.00000     0.33685    0.01126     0.34812
      I    3   -0.99099     45.98405     7.83314    0.17380    53.99099
      H    4    0.61293      0.00000     0.35430    0.03277     0.38707
 =======================================================================
   * Total *   -1.00000     47.98390    15.71491    0.30120    64.00000

 Normal termination of Gaussian 09 at Tue Oct 12 16:21:11 2021.
