 Gaussian 16, Revision B.01,
 Gaussian 16:  ES64L-G16RevB.01 20-Dec-2017

 --------------------------------------------------------
 #p pop=NBO SP NoSymm mp2/gen Pseudo=read density=current
 --------------------------------------------------------

 -----
 title
 -----
 Symbolic Z-matrix:
 Charge = -1 Multiplicity = 1

                          Input orientation:
 ---------------------------------------------------------------------
 Center     Atomic      Atomic             Coordinates (Angstroms)
 Number     Number       Type             X           Y           Z
 ---------------------------------------------------------------------
      1          8           0        0.000000    0.000000    0.000000
      2          1           0        0.960908    0.000000    0.000000
      3         53           0       -0.720970   -3.433626    0.000000
      4          1           0       -0.184943   -0.880793    0.000000
 ---------------------------------------------------------------------

 SCF Done:  E(RHF) =  -370.814478026     A.U. after   12 cycles
 E2 =    -0.4927373171D+00 EUMP2 =    -0.37130721534332D+03

 Alpha  occ. eigenvalues --  -20.40211  -7.46423  -5.28972  -5.28954  -5.28952
 Alpha  occ. eigenvalues --   -2.01713  -2.01704  -2.01699  -2.01681  -2.01681
 Alpha  occ. eigenvalues --   -1.21163  -0.62574  -0.56801  -0.44073  -0.35603
 Alpha  occ. eigenvalues --   -0.14473  -0.13977  -0.13941
 Alpha virt. eigenvalues --    0.13102   0.16925   0.23388   0.24546   0.25327
 Alpha virt. eigenvalues --    0.26842   0.28485   0.28978   0.31299   0.33449
 Alpha virt. eigenvalues --    0.36732   0.37277   0.37610   0.39593   0.40915

 Mulliken charges:
               1
     1  O   -0.463854
     2  H    0.169450
     3  I   -0.937653
     4  H    0.232058
 Sum of Mulliken charges =  -1.00000

 Dipole moment (field-independent basis, Debye):
    X=              4.2532    Y=             14.0037    Z=              0.0000  Tot=             14.6354
 Quadrupole moment (field-independent basis, Debye-Ang):
   XX=            -41.4272   YY=            -92.9865   ZZ=            -41.8828
   XY=            -10.1348   XZ=              0.0000   YZ=             -0.0000

 Summary of Natural Population Analysis:

                                       Natural Population
                Natural  -----------------------------------------------
    Atom  No    Charge         Core      Valence    Rydberg      Total
 -----------------------------------------------------------------------
      O    1   -0.94562      1.99964     6.84567    0.10031     8.94562
      H    2    0.44187      0.00000     0.54642    0.01171     0.55813
      I    3   -0.96876     45.98398     7.81437    0.17041    53.96876
      H    4    0.47251      0.00000     0.50674    0.02075     0.52749
 =======================================================================
   * Total *   -1.00000     47.98362    15.71321    0.30317    64.00000

 Normal termination of Gaussian 16 at Tue Oct 26 13:20:41 2021.
