 Gaussian 09, Revision E.01,
 Gaussian 09:  ES64L-G09RevE.01 30-Nov-2015

 --------------------------------------------------------
 #p pop=NBO SP NoSymm mp2/gen Pseudo=read density=current
 --------------------------------------------------------

 -----
 title
 -----
 Symbolic Z-matrix:
 Charge = -1 Multiplicity = 1

                          Input orientation:
 ---------------------------------------------------------------------
 Center     Atomic      Atomic             Coordinates (Angstroms)
 Number     Number       Type             X           Y           Z
 ---------------------------------------------------------------------
      1          8           0        0.000000    0.000000    0.000000
      2          1           0        0.960908    0.000000    0.000000
      3         53           0       -0.720970   -3.433628    0.000000
      4          1           0       -0.226041   -1.076525    0.000000
 ---------------------------------------------------------------------

 SCF Done:  E(RHF) =  -370.802266398     A.U. after   12 cycles
 E2 =    -0.5034743888D+00 EUMP2 =    -0.37130574078642D+03

 Alpha  occ. eigenvalues --  -20.39845  -7.47215  -5.29787  -5.29737  -5.29732
 Alpha  occ. eigenvalues --   -2.02540  -2.02510  -2.02504  -2.02451  -2.02451
 Alpha  occ. eigenvalues --   -1.15190  -0.63458  -0.50579  -0.40737  -0.33252
 Alpha  occ. eigenvalues --   -0.15314  -0.14711  -0.14671
 Alpha virt. eigenvalues --    0.13434   0.17024   0.23250   0.24502   0.25081
 Alpha virt. eigenvalues --    0.27212   0.29263   0.29476   0.31263   0.33891
 Alpha virt. eigenvalues --    0.36610   0.37075   0.37467   0.39501   0.40771

 Mulliken charges:
               1
     1  O   -0.564050
     2  H    0.170663
     3  I   -0.862788
     4  H    0.256175
 Sum of Mulliken charges =  -1.00000

 Dipole moment (field-independent basis, Debye):
    X=              3.9877    Y=             13.0248    Z=              0.0000  Tot=             13.6216
 Quadrupole moment (field-independent basis, Debye-Ang):
   XX=            -41.2462   YY=            -89.4414   ZZ=            -41.8423
   XY=             -9.4715   XZ=             -0.0000   YZ=             -0.0000

 Summary of Natural Population Analysis:

                                       Natural Population
                Natural  -----------------------------------------------
    Atom  No    Charge         Core      Valence    Rydberg      Total
 -----------------------------------------------------------------------
      O    1   -1.40032      1.99992     7.28836    0.11204     9.40032
      H    2    0.66360      0.00000     0.33011    0.00629     0.33640
      I    3   -0.94908     45.98386     7.79611    0.16910    53.94908
      H    4    0.68577      0.00000     0.29086    0.02336     0.31423
 =======================================================================
   * Total *   -1.00003     47.98378    15.70545    0.31080    64.00003

 Normal termination of Gaussian 09 at Tue Oct 12 16:23:18 2021.
