 Gaussian 16, Revision B.01,
 Gaussian 16:  ES64L-G16RevB.01 20-Dec-2017

 --------------------------------------------------------
 #p pop=NBO SP NoSymm mp2/gen Pseudo=read density=current
 --------------------------------------------------------

 -----
 title
 -----
 Symbolic Z-matrix:
 Charge = -1 Multiplicity = 1

                          Input orientation:
 ---------------------------------------------------------------------
 Center     Atomic      Atomic             Coordinates (Angstroms)
 Number     Number       Type             X           Y           Z
 ---------------------------------------------------------------------
      1          8           0        0.000000    0.000000    0.000000
      2          1           0        0.960908    0.000000    0.000000
      3         53           0       -0.720970   -3.433626    0.000000
      4          1           0       -0.297964   -1.419055    0.000000
 ---------------------------------------------------------------------

 SCF Done:  E(RHF) =  -370.736506793     A.U. after   12 cycles
 E2 =    -0.5220547905D+00 EUMP2 =    -0.37125856158380D+03

 Alpha  occ. eigenvalues --  -20.34186  -7.50269  -5.32958  -5.32732  -5.32727
 Alpha  occ. eigenvalues --   -2.05749  -2.05628  -2.05622  -2.05375  -2.05375
 Alpha  occ. eigenvalues --   -1.06280  -0.66800  -0.41406  -0.33081  -0.26604
 Alpha  occ. eigenvalues --   -0.17463  -0.17303  -0.17259
 Alpha virt. eigenvalues --    0.14570   0.16810   0.22657   0.23911   0.24142
 Alpha virt. eigenvalues --    0.28213   0.30125   0.30965   0.31544   0.34325
 Alpha virt. eigenvalues --    0.35989   0.36082   0.36351   0.38964   0.39500

 Mulliken charges:
               1
     1  O   -0.673169
     2  H    0.150033
     3  I   -0.586407
     4  H    0.109543
 Sum of Mulliken charges =  -1.00000

 Dipole moment (field-independent basis, Debye):
    X=              3.2039    Y=              9.9288    Z=             -0.0000  Tot=             10.4329
 Quadrupole moment (field-independent basis, Debye-Ang):
   XX=            -40.2821   YY=            -77.8562   ZZ=            -41.3565
   XY=             -7.3148   XZ=              0.0000   YZ=              0.0000

 Summary of Natural Population Analysis:

                                       Natural Population
                Natural  -----------------------------------------------
    Atom  No    Charge         Core      Valence    Rydberg      Total
 -----------------------------------------------------------------------
      O    1   -1.07524      1.99972     6.95975    0.11578     9.07524
      H    2    0.41958      0.00000     0.56464    0.01578     0.58042
      I    3   -0.66675     45.98219     7.52431    0.16025    53.66675
      H    4    0.32223      0.00000     0.65419    0.02359     0.67777
 =======================================================================
   * Total *   -1.00019     47.98191    15.70288    0.31540    64.00019

 Normal termination of Gaussian 16 at Tue Oct 26 13:22:55 2021.
