 Gaussian 09, Revision E.01,
 Gaussian 09:  ES64L-G09RevE.01 30-Nov-2015

 --------------------------------------------------------
 #p pop=NBO SP NoSymm mp2/gen Pseudo=read density=current
 --------------------------------------------------------

 -----
 title
 -----
 Symbolic Z-matrix:
 Charge = -1 Multiplicity = 1

                          Input orientation:
 ---------------------------------------------------------------------
 Center     Atomic      Atomic             Coordinates (Angstroms)
 Number     Number       Type             X           Y           Z
 ---------------------------------------------------------------------
      1          8           0        0.000000    0.000000    0.000000
      2          1           0        0.960908    0.000000    0.000000
      3         53           0       -0.720970   -3.433628    0.000000
      4          1           0       -0.256865   -1.223323    0.000000
 ---------------------------------------------------------------------

 SCF Done:  E(RHF) =  -370.772778150     A.U. after   12 cycles
 E2 =    -0.5120480694D+00 EUMP2 =    -0.37128482621891D+03

 Alpha  occ. eigenvalues --  -20.38193  -7.48222  -5.30831  -5.30725  -5.30720
 Alpha  occ. eigenvalues --   -2.03595  -2.03537  -2.03531  -2.03417  -2.03416
 Alpha  occ. eigenvalues --   -1.11412  -0.64569  -0.46523  -0.37409  -0.30866
 Alpha  occ. eigenvalues --   -0.16197  -0.15589  -0.15545
 Alpha virt. eigenvalues --    0.13828   0.17010   0.23085   0.24344   0.24766
 Alpha virt. eigenvalues --    0.27592   0.29732   0.29943   0.31359   0.34157
 Alpha virt. eigenvalues --    0.36485   0.36775   0.37089   0.39336   0.40051

 Mulliken charges:
               1
     1  O   -0.592346
     2  H    0.167145
     3  I   -0.766975
     4  H    0.192176
 Sum of Mulliken charges =  -1.00000

 Dipole moment (field-independent basis, Debye):
    X=              3.6991    Y=             11.8987    Z=              0.0000  Tot=             12.4604
 Quadrupole moment (field-independent basis, Debye-Ang):
   XX=            -40.9200   YY=            -85.2140   ZZ=            -41.6847
   XY=             -8.6856   XZ=             -0.0000   YZ=             -0.0000

 Summary of Natural Population Analysis:

                                       Natural Population
                Natural  -----------------------------------------------
    Atom  No    Charge         Core      Valence    Rydberg      Total
 -----------------------------------------------------------------------
      O    1   -1.40619      1.99992     7.29713    0.10914     9.40619
      H    2    0.65203      0.00000     0.33307    0.01490     0.34797
      I    3   -0.89723     45.98362     7.74730    0.16631    53.89723
      H    4    0.65135      0.00000     0.32619    0.02246     0.34865
 =======================================================================
   * Total *   -1.00003     47.98354    15.70368    0.31281    64.00003

 Normal termination of Gaussian 09 at Tue Oct 12 16:24:13 2021.
