 Gaussian 09, Revision E.01,
 Gaussian 09:  ES64L-G09RevE.01 30-Nov-2015

 --------------------------------------------------------
 #p pop=NBO SP NoSymm mp2/gen Pseudo=read density=current
 --------------------------------------------------------

 -----
 title
 -----
 Symbolic Z-matrix:
 Charge = -1 Multiplicity = 1

                          Input orientation:
 ---------------------------------------------------------------------
 Center     Atomic      Atomic             Coordinates (Angstroms)
 Number     Number       Type             X           Y           Z
 ---------------------------------------------------------------------
      1          8           0        0.000000    0.000000    0.000000
      2          1           0        0.960908    0.000000    0.000000
      3         53           0       -0.720970   -3.433628    0.000000
      4          1           0       -0.174668   -0.831860    0.000000
 ---------------------------------------------------------------------

 SCF Done:  E(RHF) =  -370.804101914     A.U. after   12 cycles
 E2 =    -0.4902890156D+00 EUMP2 =    -0.37129439093003D+03

 Alpha  occ. eigenvalues --  -20.40014  -7.46292  -5.28839  -5.28824  -5.28822
 Alpha  occ. eigenvalues --   -2.01578  -2.01571  -2.01568  -2.01552  -2.01551
 Alpha  occ. eigenvalues --   -1.23031  -0.62456  -0.58454  -0.44706  -0.36102
 Alpha  occ. eigenvalues --   -0.14316  -0.13848  -0.13814
 Alpha virt. eigenvalues --    0.13044   0.16883   0.23416   0.24536   0.25365
 Alpha virt. eigenvalues --    0.26762   0.28309   0.28815   0.31324   0.33333
 Alpha virt. eigenvalues --    0.36769   0.37306   0.37608   0.39609   0.40869

 Mulliken charges:
               1
     1  O   -0.417674
     2  H    0.172402
     3  I   -0.948610
     4  H    0.193882
 Sum of Mulliken charges =  -1.00000

 Dipole moment (field-independent basis, Debye):
    X=              4.3035    Y=             14.1741    Z=             -0.0000  Tot=             14.8130
 Quadrupole moment (field-independent basis, Debye-Ang):
   XX=            -41.4332   YY=            -93.5634   ZZ=            -41.8657
   XY=            -10.2440   XZ=              0.0000   YZ=              0.0000

 Summary of Natural Population Analysis:

                                       Natural Population
                Natural  -----------------------------------------------
    Atom  No    Charge         Core      Valence    Rydberg      Total
 -----------------------------------------------------------------------
      O    1   -1.34198      1.99990     7.23771    0.10437     9.34198
      H    2    0.66214      0.00000     0.33208    0.00578     0.33786
      I    3   -0.98662     45.98403     7.83008    0.17251    53.98662
      H    4    0.66646      0.00000     0.31043    0.02311     0.33354
 =======================================================================
   * Total *   -1.00000     47.98393    15.71030    0.30577    64.00000

 Normal termination of Gaussian 09 at Tue Oct 12 16:21:47 2021.
