 Gaussian 16, Revision B.01,
 Gaussian 16:  ES64L-G16RevB.01 20-Dec-2017

 --------------------------------------------------------
 #p pop=NBO SP NoSymm mp2/gen Pseudo=read density=current
 --------------------------------------------------------

 -----
 title
 -----
 Symbolic Z-matrix:
 Charge = -1 Multiplicity = 1

                          Input orientation:
 ---------------------------------------------------------------------
 Center     Atomic      Atomic             Coordinates (Angstroms)
 Number     Number       Type             X           Y           Z
 ---------------------------------------------------------------------
      1          8           0        0.000000    0.000000    0.000000
      2          1           0        0.960908    0.000000    0.000000
      3         53           0       -0.720970   -3.433626    0.000000
      4          1           0       -0.195218   -0.929726    0.000000
 ---------------------------------------------------------------------

 SCF Done:  E(RHF) =  -370.817593244     A.U. after   12 cycles
 E2 =    -0.4952953127D+00 EUMP2 =    -0.37131288855625D+03

 Alpha  occ. eigenvalues --  -20.40300  -7.46576  -5.29129  -5.29107  -5.29103
 Alpha  occ. eigenvalues --   -2.01873  -2.01859  -2.01854  -2.01832  -2.01832
 Alpha  occ. eigenvalues --   -1.19478  -0.62738  -0.55164  -0.43367  -0.35076
 Alpha  occ. eigenvalues --   -0.14650  -0.14124  -0.14088
 Alpha virt. eigenvalues --    0.13168   0.16960   0.23358   0.24548   0.25281
 Alpha virt. eigenvalues --    0.26925   0.28668   0.29129   0.31274   0.33564
 Alpha virt. eigenvalues --    0.36698   0.37241   0.37601   0.39577   0.40944

 Mulliken charges:
               1
     1  O   -0.503410
     2  H    0.168396
     3  I   -0.923924
     4  H    0.258939
 Sum of Mulliken charges =  -1.00000

 Dipole moment (field-independent basis, Debye):
    X=              4.1975    Y=             13.8071    Z=              0.0000  Tot=             14.4311
 Quadrupole moment (field-independent basis, Debye-Ang):
   XX=            -41.4069   YY=            -92.2990   ZZ=            -41.8899
   XY=            -10.0054   XZ=              0.0000   YZ=             -0.0000

 Summary of Natural Population Analysis:

                                       Natural Population
                Natural  -----------------------------------------------
    Atom  No    Charge         Core      Valence    Rydberg      Total
 -----------------------------------------------------------------------
      O    1   -0.96993      1.99966     6.86334    0.10693     8.96993
      H    2    0.44738      0.00000     0.54588    0.00673     0.55262
      I    3   -0.95788     45.98392     7.80425    0.16970    53.95788
      H    4    0.48040      0.00000     0.49768    0.02192     0.51960
 =======================================================================
   * Total *   -1.00002     47.98359    15.71116    0.30528    64.00002

 Normal termination of Gaussian 16 at Tue Oct 26 13:20:53 2021.
