 Gaussian 16, Revision B.01,
 Gaussian 16:  ES64L-G16RevB.01 20-Dec-2017

 --------------------------------------------------------
 #p pop=NBO SP NoSymm mp2/gen Pseudo=read density=current
 --------------------------------------------------------

 -----
 title
 -----
 Symbolic Z-matrix:
 Charge = -1 Multiplicity = 1

                          Input orientation:
 ---------------------------------------------------------------------
 Center     Atomic      Atomic             Coordinates (Angstroms)
 Number     Number       Type             X           Y           Z
 ---------------------------------------------------------------------
      1          8           0        0.000000    0.000000    0.000000
      2          1           0        0.960908    0.000000    0.000000
      3         53           0       -0.720970   -3.433626    0.000000
      4          1           0       -0.287689   -1.370122    0.000000
 ---------------------------------------------------------------------

 SCF Done:  E(RHF) =  -370.744423349     A.U. after   12 cycles
 E2 =    -0.5199273699D+00 EUMP2 =    -0.37126435071918D+03

 Alpha  occ. eigenvalues --  -20.35347  -7.49686  -5.32352  -5.32160  -5.32155
 Alpha  occ. eigenvalues --   -2.05135  -2.05032  -2.05026  -2.04817  -2.04817
 Alpha  occ. eigenvalues --   -1.07590  -0.66160  -0.42678  -0.34027  -0.27771
 Alpha  occ. eigenvalues --   -0.17181  -0.16825  -0.16775
 Alpha virt. eigenvalues --    0.14364   0.16884   0.22793   0.24043   0.24317
 Alpha virt. eigenvalues --    0.28058   0.30018   0.30706   0.31496   0.34294
 Alpha virt. eigenvalues --    0.36169   0.36288   0.36511   0.39067   0.39515

 Mulliken charges:
               1
     1  O   -0.647560
     2  H    0.155125
     3  I   -0.636002
     4  H    0.128438
 Sum of Mulliken charges =  -1.00000

 Dipole moment (field-independent basis, Debye):
    X=              3.3360    Y=             10.4559    Z=              0.0000  Tot=             10.9752
 Quadrupole moment (field-independent basis, Debye-Ang):
   XX=            -40.4549   YY=            -79.8078   ZZ=            -41.4446
   XY=             -7.6793   XZ=             -0.0000   YZ=             -0.0000

 Summary of Natural Population Analysis:

                                       Natural Population
                Natural  -----------------------------------------------
    Atom  No    Charge         Core      Valence    Rydberg      Total
 -----------------------------------------------------------------------
      O    1   -1.06676      1.99972     6.95284    0.11421     9.06676
      H    2    0.42293      0.00000     0.56203    0.01504     0.57707
      I    3   -0.70534     45.98238     7.56159    0.16137    53.70534
      H    4    0.34902      0.00000     0.62748    0.02350     0.65098
 =======================================================================
   * Total *   -1.00015     47.98210    15.70394    0.31412    64.00015

 Normal termination of Gaussian 16 at Tue Oct 26 13:22:42 2021.
