 Gaussian 09, Revision E.01,
 Gaussian 09:  ES64L-G09RevE.01 30-Nov-2015

 --------------------------------------------------------
 #p pop=NBO SP NoSymm mp2/gen Pseudo=read density=current
 --------------------------------------------------------

 -----
 title
 -----
 Symbolic Z-matrix:
 Charge = -1 Multiplicity = 1

                          Input orientation:
 ---------------------------------------------------------------------
 Center     Atomic      Atomic             Coordinates (Angstroms)
 Number     Number       Type             X           Y           Z
 ---------------------------------------------------------------------
      1          8           0        0.000000    0.000000    0.000000
      2          1           0        0.960908    0.000000    0.000000
      3         53           0       -0.720970   -3.433628    0.000000
      4          1           0       -0.195217   -0.929726    0.000000
 ---------------------------------------------------------------------

 SCF Done:  E(RHF) =  -370.817593269     A.U. after   12 cycles
 E2 =    -0.4952952876D+00 EUMP2 =    -0.37131288855704D+03

 Alpha  occ. eigenvalues --  -20.40300  -7.46576  -5.29129  -5.29107  -5.29103
 Alpha  occ. eigenvalues --   -2.01873  -2.01859  -2.01854  -2.01832  -2.01832
 Alpha  occ. eigenvalues --   -1.19478  -0.62738  -0.55164  -0.43367  -0.35076
 Alpha  occ. eigenvalues --   -0.14650  -0.14124  -0.14088
 Alpha virt. eigenvalues --    0.13168   0.16960   0.23358   0.24548   0.25281
 Alpha virt. eigenvalues --    0.26925   0.28668   0.29129   0.31274   0.33564
 Alpha virt. eigenvalues --    0.36698   0.37241   0.37601   0.39577   0.40944

 Mulliken charges:
               1
     1  O   -0.503410
     2  H    0.168396
     3  I   -0.923924
     4  H    0.258938
 Sum of Mulliken charges =  -1.00000

 Dipole moment (field-independent basis, Debye):
    X=              4.1975    Y=             13.8072    Z=              0.0000  Tot=             14.4311
 Quadrupole moment (field-independent basis, Debye-Ang):
   XX=            -41.4069   YY=            -92.2990   ZZ=            -41.8899
   XY=            -10.0054   XZ=             -0.0000   YZ=             -0.0000

 Summary of Natural Population Analysis:

                                       Natural Population
                Natural  -----------------------------------------------
    Atom  No    Charge         Core      Valence    Rydberg      Total
 -----------------------------------------------------------------------
      O    1   -1.37383      1.99991     7.26706    0.10686     9.37383
      H    2    0.66416      0.00000     0.32987    0.00597     0.33584
      I    3   -0.97788     45.98399     7.82250    0.17139    53.97788
      H    4    0.68756      0.00000     0.28919    0.02325     0.31244
 =======================================================================
   * Total *   -1.00000     47.98391    15.70862    0.30747    64.00000

 Normal termination of Gaussian 09 at Tue Oct 12 16:22:23 2021.
