 Gaussian 16, Revision B.01,
 Gaussian 16:  ES64L-G16RevB.01 20-Dec-2017

 --------------------------------------------------------
 #p pop=NBO SP NoSymm mp2/gen Pseudo=read density=current
 --------------------------------------------------------

 -----
 title
 -----
 Symbolic Z-matrix:
 Charge = -1 Multiplicity = 1

                          Input orientation:
 ---------------------------------------------------------------------
 Center     Atomic      Atomic             Coordinates (Angstroms)
 Number     Number       Type             X           Y           Z
 ---------------------------------------------------------------------
      1          8           0        0.000000    0.000000    0.000000
      2          1           0        0.960908    0.000000    0.000000
      3         53           0       -0.720970   -3.433626    0.000000
      4          1           0       -0.308238   -1.467988    0.000000
 ---------------------------------------------------------------------

 SCF Done:  E(RHF) =  -370.729555596     A.U. after   13 cycles
 E2 =    -0.5237960193D+00 EUMP2 =    -0.37125335161577D+03

 Alpha  occ. eigenvalues --  -20.32956  -7.50887  -5.33601  -5.33339  -5.33334
 Alpha  occ. eigenvalues --   -2.06402  -2.06260  -2.06254  -2.05967  -2.05967
 Alpha  occ. eigenvalues --   -1.04964  -0.67488  -0.40151  -0.32305  -0.25396
 Alpha  occ. eigenvalues --   -0.17849  -0.17769  -0.17634
 Alpha virt. eigenvalues --    0.14784   0.16720   0.22503   0.23766   0.23959
 Alpha virt. eigenvalues --    0.28353   0.30240   0.31216   0.31594   0.34372
 Alpha virt. eigenvalues --    0.35783   0.35858   0.36217   0.38863   0.39563

 Mulliken charges:
               1
     1  O   -0.701557
     2  H    0.144696
     3  I   -0.535149
     4  H    0.092010
 Sum of Mulliken charges =  -1.00000

 Dipole moment (field-independent basis, Debye):
    X=              3.0685    Y=              9.3877    Z=              0.0000  Tot=              9.8764
 Quadrupole moment (field-independent basis, Debye-Ang):
   XX=            -40.1051   YY=            -75.8712   ZZ=            -41.2678
   XY=             -6.9431   XZ=              0.0000   YZ=              0.0000

 Summary of Natural Population Analysis:

                                       Natural Population
                Natural  -----------------------------------------------
    Atom  No    Charge         Core      Valence    Rydberg      Total
 -----------------------------------------------------------------------
      O    1   -1.08546      1.99972     6.96825    0.11749     9.08546
      H    2    0.41625      0.00000     0.56715    0.01660     0.58375
      I    3   -0.62802     45.98201     7.48698    0.15903    53.62802
      H    4    0.29700      0.00000     0.67918    0.02381     0.70300
 =======================================================================
   * Total *   -1.00022     47.98172    15.70157    0.31693    64.00022

 Normal termination of Gaussian 16 at Tue Oct 26 13:23:08 2021.
