 Gaussian 16, Revision B.01,
 Gaussian 16:  ES64L-G16RevB.01 20-Dec-2017

 ----------------------------------------------------
 #p pop=NBO SP NoSymm mp2/aug-cc-pvtz density=current
 ----------------------------------------------------

 -----
 title
 -----
 Symbolic Z-matrix:
 Charge = -1 Multiplicity = 1

                          Input orientation:
 ---------------------------------------------------------------------
 Center     Atomic      Atomic             Coordinates (Angstroms)
 Number     Number       Type             X           Y           Z
 ---------------------------------------------------------------------
      1          8           0        0.000000    0.000000    0.000000
      2          1           0        0.960482    0.000000    0.000000
      3         35           0       -0.656753   -3.183800    0.000000
      4          1           0       -0.163514   -0.792682    0.566728
 ---------------------------------------------------------------------

 SCF Done:  E(RHF) =  -2648.59870270     A.U. after   11 cycles
 E2 =    -0.5174568594D+00 EUMP2 =    -0.26491161595550D+04

 Alpha  occ. eigenvalues -- -489.73205 -64.87227 -58.22677 -58.22675 -58.22670
 Alpha  occ. eigenvalues --  -20.40002  -9.54472  -7.15229  -7.15211  -7.15192
 Alpha  occ. eigenvalues --   -2.89403  -2.89400  -2.89373  -2.89351  -2.89346
 Alpha  occ. eigenvalues --   -1.17996  -0.70147  -0.53084  -0.42680  -0.34308
 Alpha  occ. eigenvalues --   -0.15569  -0.15262  -0.15095
 Alpha virt. eigenvalues --    0.13575   0.16784   0.23652   0.24269   0.25409
 Alpha virt. eigenvalues --    0.27174   0.28156   0.30000   0.33642   0.36009
 Alpha virt. eigenvalues --    0.38497   0.39469   0.41942   0.45587   0.47933

 Mulliken charges:
               1
     1  O   -0.475642
     2  H    0.180810
     3  Br  -0.949248
     4  H    0.244079
 Sum of Mulliken charges =  -1.00000

 Dipole moment (field-independent basis, Debye):
    X=              4.0032    Y=             13.1062    Z=              0.4922  Tot=             13.7128
 Quadrupole moment (field-independent basis, Debye-Ang):
   XX=            -31.1889   YY=            -77.0241   ZZ=            -31.1037
   XY=             -8.8625   XZ=             -0.1783   YZ=             -0.3062

 Summary of Natural Population Analysis:

                                       Natural Population
                Natural  -----------------------------------------------
    Atom  No    Charge         Core      Valence    Rydberg      Total
 -----------------------------------------------------------------------
      O    1   -0.96213      1.99968     6.85409    0.10836     8.96213
      H    2    0.44516      0.00000     0.54801    0.00683     0.55484
     Br    3   -0.97188     27.98850     7.82325    0.16013    35.97188
      H    4    0.48886      0.00000     0.49204    0.01911     0.51114
 =======================================================================
   * Total *   -1.00000     29.98817    15.71739    0.29443    46.00000

 Normal termination of Gaussian 16 at Wed Oct 20 14:55:49 2021.
