 Gaussian 16, Revision B.01,
 Gaussian 16:  ES64L-G16RevB.01 20-Dec-2017

 ----------------------------------------------------
 #p pop=NBO SP NoSymm mp2/aug-cc-pvtz density=current
 ----------------------------------------------------

 -----
 title
 -----
 Symbolic Z-matrix:
 Charge = -1 Multiplicity = 1

                          Input orientation:
 ---------------------------------------------------------------------
 Center     Atomic      Atomic             Coordinates (Angstroms)
 Number     Number       Type             X           Y           Z
 ---------------------------------------------------------------------
      1          8           0        0.000000    0.000000    0.000000
      2          1           0        0.960482    0.000000    0.000000
      3         35           0       -0.656753   -3.183800    0.000000
      4          1           0       -0.172871   -0.838041    0.494030
 ---------------------------------------------------------------------

 SCF Done:  E(RHF) =  -2648.60071652     A.U. after   11 cycles
 E2 =    -0.5177703021D+00 EUMP2 =    -0.26491184868248D+04

 Alpha  occ. eigenvalues -- -489.73405 -64.87427 -58.22877 -58.22875 -58.22870
 Alpha  occ. eigenvalues --  -20.39735  -9.54672  -7.15430  -7.15410  -7.15393
 Alpha  occ. eigenvalues --   -2.89602  -2.89598  -2.89575  -2.89552  -2.89548
 Alpha  occ. eigenvalues --   -1.17754  -0.70390  -0.53001  -0.42412  -0.34084
 Alpha  occ. eigenvalues --   -0.15815  -0.15462  -0.15321
 Alpha virt. eigenvalues --    0.13586   0.16951   0.23582   0.24239   0.25299
 Alpha virt. eigenvalues --    0.27382   0.28099   0.30003   0.33954   0.35868
 Alpha virt. eigenvalues --    0.38957   0.39764   0.41822   0.45588   0.47987

 Mulliken charges:
               1
     1  O   -0.485203
     2  H    0.178019
     3  Br  -0.942614
     4  H    0.249797
 Sum of Mulliken charges =  -1.00000

 Dipole moment (field-independent basis, Debye):
    X=              3.9686    Y=             12.9303    Z=              0.4119  Tot=             13.5319
 Quadrupole moment (field-independent basis, Debye-Ang):
   XX=            -31.1069   YY=            -76.3144   ZZ=            -31.2498
   XY=             -8.7263   XZ=             -0.1562   YZ=             -0.2740

 Summary of Natural Population Analysis:

                                       Natural Population
                Natural  -----------------------------------------------
    Atom  No    Charge         Core      Valence    Rydberg      Total
 -----------------------------------------------------------------------
      O    1   -0.96926      1.99968     6.86133    0.10825     8.96926
      H    2    0.44496      0.00000     0.54818    0.00686     0.55504
     Br    3   -0.96560     27.98848     7.81800    0.15912    35.96560
      H    4    0.48989      0.00000     0.49023    0.01987     0.51011
 =======================================================================
   * Total *   -1.00000     29.98816    15.71774    0.29411    46.00000

 Normal termination of Gaussian 16 at Wed Oct 20 14:55:36 2021.
