 Gaussian 16, Revision B.01,
 Gaussian 16:  ES64L-G16RevB.01 20-Dec-2017

 ----------------------------------------------------
 #p pop=NBO SP NoSymm mp2/aug-cc-pvtz density=current
 ----------------------------------------------------

 -----
 title
 -----
 Symbolic Z-matrix:
 Charge = -1 Multiplicity = 1

                          Input orientation:
 ---------------------------------------------------------------------
 Center     Atomic      Atomic             Coordinates (Angstroms)
 Number     Number       Type             X           Y           Z
 ---------------------------------------------------------------------
      1          8           0        0.000000    0.000000    0.000000
      2          1           0        0.960482    0.000000    0.000000
      3         35           0       -0.656753   -3.183800    0.000000
      4          1           0       -0.152913   -0.741291    0.635113
 ---------------------------------------------------------------------

 SCF Done:  E(RHF) =  -2648.59655010     A.U. after   11 cycles
 E2 =    -0.5171645180D+00 EUMP2 =    -0.26491137146229D+04

 Alpha  occ. eigenvalues -- -489.72997 -64.87018 -58.22469 -58.22466 -58.22461
 Alpha  occ. eigenvalues --  -20.40275  -9.54264  -7.15020  -7.15003  -7.14981
 Alpha  occ. eigenvalues --   -2.89195  -2.89192  -2.89163  -2.89142  -2.89136
 Alpha  occ. eigenvalues --   -1.18246  -0.69898  -0.53158  -0.42964  -0.34535
 Alpha  occ. eigenvalues --   -0.15315  -0.15054  -0.14861
 Alpha virt. eigenvalues --    0.13563   0.16597   0.23722   0.24307   0.25513
 Alpha virt. eigenvalues --    0.26995   0.28235   0.29987   0.33303   0.36093
 Alpha virt. eigenvalues --    0.38025   0.39204   0.42054   0.45574   0.47889

 Mulliken charges:
               1
     1  O   -0.467700
     2  H    0.183358
     3  Br  -0.956130
     4  H    0.240472
 Sum of Mulliken charges =  -1.00000

 Dipole moment (field-independent basis, Debye):
    X=              4.0395    Y=             13.2921    Z=              0.5748  Tot=             13.9042
 Quadrupole moment (field-independent basis, Debye-Ang):
   XX=            -31.2734   YY=            -77.7573   ZZ=            -30.9439
   XY=             -9.0041   XZ=             -0.1973   YZ=             -0.3266

 Summary of Natural Population Analysis:

                                       Natural Population
                Natural  -----------------------------------------------
    Atom  No    Charge         Core      Valence    Rydberg      Total
 -----------------------------------------------------------------------
      O    1   -0.95474      1.99968     6.84648    0.10857     8.95474
      H    2    0.44532      0.00000     0.54788    0.00680     0.55468
     Br    3   -0.97751     27.98851     7.82785    0.16115    35.97751
      H    4    0.48693      0.00000     0.49477    0.01830     0.51307
 =======================================================================
   * Total *   -1.00000     29.98819    15.71699    0.29482    46.00000

 Normal termination of Gaussian 16 at Wed Oct 20 14:56:01 2021.
