 Gaussian 16, Revision B.01,
 Gaussian 16:  ES64L-G16RevB.01 20-Dec-2017

 ----------------------------------------------------
 #p pop=NBO SP NoSymm mp2/aug-cc-pvtz density=current
 ----------------------------------------------------

 -----
 title
 -----
 Symbolic Z-matrix:
 Charge = -1 Multiplicity = 1

                          Input orientation:
 ---------------------------------------------------------------------
 Center     Atomic      Atomic             Coordinates (Angstroms)
 Number     Number       Type             X           Y           Z
 ---------------------------------------------------------------------
      1          8           0        0.000000    0.000000    0.000000
      2          1           0        0.960482    0.000000    0.000000
      3         35           0       -0.656753   -3.183800    0.000000
      4          1           0       -0.141148   -0.684258    0.698664
 ---------------------------------------------------------------------

 SCF Done:  E(RHF) =  -2648.59430725     A.U. after   11 cycles
 E2 =    -0.5169077775D+00 EUMP2 =    -0.26491112150313D+04

 Alpha  occ. eigenvalues -- -489.72786 -64.86807 -58.22257 -58.22255 -58.22249
 Alpha  occ. eigenvalues --  -20.40546  -9.54053  -7.14808  -7.14793  -7.14769
 Alpha  occ. eigenvalues --   -2.88984  -2.88982  -2.88950  -2.88931  -2.88924
 Alpha  occ. eigenvalues --   -1.18498  -0.69650  -0.53216  -0.43259  -0.34758
 Alpha  occ. eigenvalues --   -0.15062  -0.14844  -0.14625
 Alpha virt. eigenvalues --    0.13548   0.16395   0.23786   0.24357   0.25611
 Alpha virt. eigenvalues --    0.26850   0.28321   0.29964   0.32950   0.36128
 Alpha virt. eigenvalues --    0.37585   0.38957   0.42153   0.45530   0.47861

 Mulliken charges:
               1
     1  O   -0.461085
     2  H    0.185561
     3  Br  -0.963015
     4  H    0.238539
 Sum of Mulliken charges =  -1.00000

 Dipole moment (field-independent basis, Debye):
    X=              4.0764    Y=             13.4837    Z=              0.6583  Tot=             14.1018
 Quadrupole moment (field-independent basis, Debye-Ang):
   XX=            -31.3578   YY=            -78.4910   ZZ=            -30.7750
   XY=             -9.1469   XZ=             -0.2121   YZ=             -0.3313

 Summary of Natural Population Analysis:

                                       Natural Population
                Natural  -----------------------------------------------
    Atom  No    Charge         Core      Valence    Rydberg      Total
 -----------------------------------------------------------------------
      O    1   -0.94730      1.99968     6.83873    0.10889     8.94730
      H    2    0.44542      0.00000     0.54781    0.00677     0.55458
     Br    3   -0.98229     27.98852     7.83164    0.16212    35.98229
      H    4    0.48417      0.00000     0.49836    0.01747     0.51583
 =======================================================================
   * Total *   -1.00000     29.98820    15.71654    0.29525    46.00000

 Normal termination of Gaussian 16 at Wed Oct 20 14:56:14 2021.
