 Gaussian 16, Revision B.01,
 Gaussian 16:  ES64L-G16RevB.01 20-Dec-2017

 ----------------------------------------------------
 #p pop=NBO SP NoSymm mp2/aug-cc-pvtz density=current
 ----------------------------------------------------

 -----
 title
 -----
 Symbolic Z-matrix:
 Charge = -1 Multiplicity = 1

                          Input orientation:
 ---------------------------------------------------------------------
 Center     Atomic      Atomic             Coordinates (Angstroms)
 Number     Number       Type             X           Y           Z
 ---------------------------------------------------------------------
      1          8           0        0.000000    0.000000    0.000000
      2          1           0        0.960482    0.000000    0.000000
      3         35           0       -0.656753   -3.183800    0.000000
      4          1           0       -0.192812   -0.934713    0.255729
 ---------------------------------------------------------------------

 SCF Done:  E(RHF) =  -2648.60539775     A.U. after   11 cycles
 E2 =    -0.5186602306D+00 EUMP2 =    -0.26491240579831D+04

 Alpha  occ. eigenvalues -- -489.73885 -64.87910 -58.23360 -58.23358 -58.23355
 Alpha  occ. eigenvalues --  -20.39066  -9.55156  -7.15913  -7.15892  -7.15883
 Alpha  occ. eigenvalues --   -2.90081  -2.90074  -2.90063  -2.90039  -2.90038
 Alpha  occ. eigenvalues --   -1.17162  -0.70999  -0.52754  -0.41782  -0.33513
 Alpha  occ. eigenvalues --   -0.16424  -0.15946  -0.15872
 Alpha virt. eigenvalues --    0.13600   0.17297   0.23422   0.24182   0.24990
 Alpha virt. eigenvalues --    0.27646   0.28647   0.29967   0.34568   0.35035
 Alpha virt. eigenvalues --    0.39769   0.40772   0.41593   0.45860   0.48151

 Mulliken charges:
               1
     1  O   -0.519594
     2  H    0.170222
     3  Br  -0.926636
     4  H    0.276009
 Sum of Mulliken charges =  -1.00000

 Dipole moment (field-independent basis, Debye):
    X=              3.8852    Y=             12.5120    Z=              0.1921  Tot=             13.1028
 Quadrupole moment (field-independent basis, Debye-Ang):
   XX=            -30.9053   YY=            -74.5802   ZZ=            -31.5732
   XY=             -8.3961   XZ=             -0.0795   YZ=             -0.1417

 Summary of Natural Population Analysis:

                                       Natural Population
                Natural  -----------------------------------------------
    Atom  No    Charge         Core      Valence    Rydberg      Total
 -----------------------------------------------------------------------
      O    1   -0.98637      1.99967     6.87839    0.10831     8.98637
      H    2    0.44432      0.00000     0.54874    0.00694     0.55568
     Br    3   -0.94678     27.98841     7.80177    0.15660    35.94678
      H    4    0.48882      0.00000     0.48955    0.02162     0.51118
 =======================================================================
   * Total *   -1.00000     29.98808    15.71845    0.29347    46.00000

 Normal termination of Gaussian 16 at Wed Oct 20 14:54:57 2021.
