 Gaussian 16, Revision B.01,
 Gaussian 16:  ES64L-G16RevB.01 20-Dec-2017

 ----------------------------------------------------
 #p pop=NBO SP NoSymm mp2/aug-cc-pvtz density=current
 ----------------------------------------------------

 -----
 title
 -----
 Symbolic Z-matrix:
 Charge = -1 Multiplicity = 1

                          Input orientation:
 ---------------------------------------------------------------------
 Center     Atomic      Atomic             Coordinates (Angstroms)
 Number     Number       Type             X           Y           Z
 ---------------------------------------------------------------------
      1          8           0        0.000000    0.000000    0.000000
      2          1           0        0.960482    0.000000    0.000000
      3         35           0       -0.656753   -3.183800    0.000000
      4          1           0       -0.187576   -0.909328    0.337936
 ---------------------------------------------------------------------

 SCF Done:  E(RHF) =  -2648.60411551     A.U. after   11 cycles
 E2 =    -0.5183910897D+00 EUMP2 =    -0.26491225065951D+04

 Alpha  occ. eigenvalues -- -489.73751 -64.87775 -58.23225 -58.23223 -58.23220
 Alpha  occ. eigenvalues --  -20.39256  -9.55021  -7.15778  -7.15757  -7.15746
 Alpha  occ. eigenvalues --   -2.89947  -2.89942  -2.89927  -2.89903  -2.89901
 Alpha  occ. eigenvalues --   -1.17329  -0.70826  -0.52829  -0.41956  -0.33677
 Alpha  occ. eigenvalues --   -0.16252  -0.15811  -0.15717
 Alpha virt. eigenvalues --    0.13598   0.17210   0.23464   0.24195   0.25084
 Alpha virt. eigenvalues --    0.27667   0.28292   0.29983   0.34443   0.35372
 Alpha virt. eigenvalues --    0.39609   0.40466   0.41625   0.45691   0.48107

 Mulliken charges:
               1
     1  O   -0.508129
     2  H    0.172490
     3  Br  -0.931047
     4  H    0.266686
 Sum of Mulliken charges =  -1.00000

 Dipole moment (field-independent basis, Debye):
    X=              3.9085    Y=             12.6282    Z=              0.2616  Tot=             13.2218
 Quadrupole moment (field-independent basis, Debye-Ang):
   XX=            -30.9621   YY=            -75.0670   ZZ=            -31.4870
   XY=             -8.4885   XZ=             -0.1059   YZ=             -0.1888

 Summary of Natural Population Analysis:

                                       Natural Population
                Natural  -----------------------------------------------
    Atom  No    Charge         Core      Valence    Rydberg      Total
 -----------------------------------------------------------------------
      O    1   -0.98163      1.99967     6.87370    0.10825     8.98163
      H    2    0.44452      0.00000     0.54857    0.00692     0.55548
     Br    3   -0.95254     27.98843     7.80680    0.15731    35.95254
      H    4    0.48966      0.00000     0.48919    0.02115     0.51034
 =======================================================================
   * Total *   -1.00000     29.98811    15.71826    0.29363    46.00000

 Normal termination of Gaussian 16 at Wed Oct 20 14:55:11 2021.
