 Gaussian 16, Revision B.01,
 Gaussian 16:  ES64L-G16RevB.01 20-Dec-2017

 ----------------------------------------------------
 #p pop=NBO SP NoSymm mp2/aug-cc-pvtz density=current
 ----------------------------------------------------

 -----
 title
 -----
 Symbolic Z-matrix:
 Charge = -1 Multiplicity = 1

                          Input orientation:
 ---------------------------------------------------------------------
 Center     Atomic      Atomic             Coordinates (Angstroms)
 Number     Number       Type             X           Y           Z
 ---------------------------------------------------------------------
      1          8           0        0.000000    0.000000    0.000000
      2          1           0        0.960482    0.000000    0.000000
      3         35           0       -0.656753   -3.183800    0.000000
      4          1           0       -0.196581   -0.952985    0.171575
 ---------------------------------------------------------------------

 SCF Done:  E(RHF) =  -2648.60634405     A.U. after   11 cycles
 E2 =    -0.5188750268D+00 EUMP2 =    -0.26491252190811D+04

 Alpha  occ. eigenvalues -- -489.73985 -64.88011 -58.23460 -58.23459 -58.23457
 Alpha  occ. eigenvalues --  -20.38923  -9.55257  -7.16014  -7.15992  -7.15986
 Alpha  occ. eigenvalues --   -2.90180  -2.90173  -2.90165  -2.90142  -2.90141
 Alpha  occ. eigenvalues --   -1.17037  -0.71130  -0.52696  -0.41653  -0.33388
 Alpha  occ. eigenvalues --   -0.16554  -0.16047  -0.15989
 Alpha virt. eigenvalues --    0.13600   0.17354   0.23390   0.24174   0.24914
 Alpha virt. eigenvalues --    0.27596   0.29072   0.29951   0.34404   0.34872
 Alpha virt. eigenvalues --    0.39851   0.40966   0.41618   0.46099   0.48164

 Mulliken charges:
               1
     1  O   -0.529207
     2  H    0.168532
     3  Br  -0.923459
     4  H    0.284134
 Sum of Mulliken charges =  -1.00000

 Dipole moment (field-independent basis, Debye):
    X=              3.8678    Y=             12.4254    Z=              0.1259  Tot=             13.0141
 Quadrupole moment (field-independent basis, Debye-Ang):
   XX=            -30.8625   YY=            -74.2149   ZZ=            -31.6356
   XY=             -8.3268   XZ=             -0.0529   YZ=             -0.0942

 Summary of Natural Population Analysis:

                                       Natural Population
                Natural  -----------------------------------------------
    Atom  No    Charge         Core      Valence    Rydberg      Total
 -----------------------------------------------------------------------
      O    1   -0.98559      1.99967     6.88323    0.10269     8.98559
      H    2    0.43885      0.00000     0.54909    0.01206     0.56115
     Br    3   -0.94208     27.98839     7.79777    0.15592    35.94208
      H    4    0.48882      0.00000     0.49005    0.02113     0.51118
 =======================================================================
   * Total *   -1.00000     29.98807    15.72013    0.29181    46.00000

 Normal termination of Gaussian 16 at Wed Oct 20 14:54:45 2021.
