 Gaussian 16, Revision B.01,
 Gaussian 16:  ES64L-G16RevB.01 20-Dec-2017

 ----------------------------------------------------
 #p pop=NBO SP NoSymm mp2/aug-cc-pvtz density=current
 ----------------------------------------------------

 -----
 title
 -----
 Symbolic Z-matrix:
 Charge = -1 Multiplicity = 1

                          Input orientation:
 ---------------------------------------------------------------------
 Center     Atomic      Atomic             Coordinates (Angstroms)
 Number     Number       Type             X           Y           Z
 ---------------------------------------------------------------------
      1          8           0        0.000000    0.000000    0.000000
      2          1           0        0.960482    0.000000    0.000000
      3         35           0       -0.656753   -3.183800    0.000000
      4          1           0       -0.198854   -0.964004    0.086115
 ---------------------------------------------------------------------

 SCF Done:  E(RHF) =  -2648.60692402     A.U. after   11 cycles
 E2 =    -0.5190153140D+00 EUMP2 =    -0.26491259393293D+04

 Alpha  occ. eigenvalues -- -489.74048 -64.88074 -58.23522 -58.23521 -58.23520
 Alpha  occ. eigenvalues --  -20.38834  -9.55320  -7.16077  -7.16054  -7.16050
 Alpha  occ. eigenvalues --   -2.90242  -2.90234  -2.90229  -2.90206  -2.90206
 Alpha  occ. eigenvalues --   -1.16959  -0.71212  -0.52659  -0.41573  -0.33310
 Alpha  occ. eigenvalues --   -0.16634  -0.16110  -0.16063
 Alpha virt. eigenvalues --    0.13599   0.17386   0.23371   0.24171   0.24864
 Alpha virt. eigenvalues --    0.27554   0.29453   0.29934   0.34051   0.34894
 Alpha virt. eigenvalues --    0.39885   0.41060   0.41659   0.46326   0.48149

 Mulliken charges:
               1
     1  O   -0.535611
     2  H    0.167502
     3  Br  -0.921600
     4  H    0.289709
 Sum of Mulliken charges =  -1.00000

 Dipole moment (field-independent basis, Debye):
    X=              3.8571    Y=             12.3719    Z=              0.0623  Tot=             12.9593
 Quadrupole moment (field-independent basis, Debye-Ang):
   XX=            -30.8359   YY=            -73.9884   ZZ=            -31.6733
   XY=             -8.2839   XZ=             -0.0264   YZ=             -0.0469

 Summary of Natural Population Analysis:

                                       Natural Population
                Natural  -----------------------------------------------
    Atom  No    Charge         Core      Valence    Rydberg      Total
 -----------------------------------------------------------------------
      O    1   -0.98771      1.99967     6.88532    0.10272     8.98771
      H    2    0.43874      0.00000     0.54918    0.01209     0.56126
     Br    3   -0.93916     27.98838     7.79519    0.15559    35.93916
      H    4    0.48813      0.00000     0.49052    0.02135     0.51187
 =======================================================================
   * Total *   -1.00000     29.98805    15.72020    0.29175    46.00000

 Normal termination of Gaussian 16 at Wed Oct 20 14:54:32 2021.
