 Gaussian 16, Revision B.01,
 Gaussian 16:  ES64L-G16RevB.01 20-Dec-2017

 ----------------------------------------------------
 #p pop=NBO SP NoSymm mp2/aug-cc-pvtz density=current
 ----------------------------------------------------

 -----
 title
 -----
 Symbolic Z-matrix:
 Charge = -1 Multiplicity = 1

                          Input orientation:
 ---------------------------------------------------------------------
 Center     Atomic      Atomic             Coordinates (Angstroms)
 Number     Number       Type             X           Y           Z
 ---------------------------------------------------------------------
      1          8           0        0.000000    0.000000    0.000000
      2          1           0        0.960482    0.000000    0.000000
      3         35           0       -0.656753   -3.183800    0.000000
      4          1           0       -0.128309   -0.622017    0.756898
 ---------------------------------------------------------------------

 SCF Done:  E(RHF) =  -2648.59201555     A.U. after   11 cycles
 E2 =    -0.5166978249D+00 EUMP2 =    -0.26491087133786D+04

 Alpha  occ. eigenvalues -- -489.72578 -64.86598 -58.22048 -58.22046 -58.22040
 Alpha  occ. eigenvalues --  -20.40808  -9.53844  -7.14599  -7.14585  -7.14559
 Alpha  occ. eigenvalues --   -2.88776  -2.88775  -2.88739  -2.88723  -2.88715
 Alpha  occ. eigenvalues --   -1.18748  -0.69410  -0.53254  -0.43560  -0.34970
 Alpha  occ. eigenvalues --   -0.14817  -0.14637  -0.14392
 Alpha virt. eigenvalues --    0.13531   0.16185   0.23841   0.24418   0.25702
 Alpha virt. eigenvalues --    0.26734   0.28410   0.29934   0.32593   0.36112
 Alpha virt. eigenvalues --    0.37204   0.38727   0.42235   0.45437   0.47855

 Mulliken charges:
               1
     1  O   -0.455341
     2  H    0.187385
     3  Br  -0.969660
     4  H    0.237615
 Sum of Mulliken charges =  -1.00000

 Dipole moment (field-independent basis, Debye):
    X=              4.1132    Y=             13.6776    Z=              0.7413  Tot=             14.3020
 Quadrupole moment (field-independent basis, Debye-Ang):
   XX=            -31.4398   YY=            -79.2052   ZZ=            -30.6024
   XY=             -9.2874   XZ=             -0.2222   YZ=             -0.3170

 Summary of Natural Population Analysis:

                                       Natural Population
                Natural  -----------------------------------------------
    Atom  No    Charge         Core      Valence    Rydberg      Total
 -----------------------------------------------------------------------
      O    1   -0.93999      1.99968     6.83100    0.10930     8.93999
      H    2    0.44545      0.00000     0.54781    0.00674     0.55455
     Br    3   -0.98617     27.98853     7.83461    0.16303    35.98617
      H    4    0.48070      0.00000     0.50264    0.01666     0.51930
 =======================================================================
   * Total *   -1.00000     29.98821    15.71606    0.29573    46.00000

 Normal termination of Gaussian 16 at Wed Oct 20 14:56:26 2021.
