 Gaussian 16, Revision B.01,
 Gaussian 16:  ES64L-G16RevB.01 20-Dec-2017

 ----------------------------------------------------
 #p pop=NBO SP NoSymm mp2/aug-cc-pvtz density=current
 ----------------------------------------------------

 -----
 title
 -----
 Symbolic Z-matrix:
 Charge = -1 Multiplicity = 1

                          Input orientation:
 ---------------------------------------------------------------------
 Center     Atomic      Atomic             Coordinates (Angstroms)
 Number     Number       Type             X           Y           Z
 ---------------------------------------------------------------------
      1          8           0        0.000000    0.000000    0.000000
      2          1           0        0.960482    0.000000    0.000000
      3         35           0       -0.656753   -3.183800    0.000000
      4          1           0       -0.180912   -0.877022    0.417572
 ---------------------------------------------------------------------

 SCF Done:  E(RHF) =  -2648.60253862     A.U. after   11 cycles
 E2 =    -0.5180879050D+00 EUMP2 =    -0.26491206265221D+04

 Alpha  occ. eigenvalues -- -489.73589 -64.87612 -58.23062 -58.23060 -58.23056
 Alpha  occ. eigenvalues --  -20.39482  -9.54858  -7.15615  -7.15594  -7.15581
 Alpha  occ. eigenvalues --   -2.89785  -2.89781  -2.89762  -2.89738  -2.89735
 Alpha  occ. eigenvalues --   -1.17529  -0.70619  -0.52913  -0.42169  -0.33870
 Alpha  occ. eigenvalues --   -0.16046  -0.15647  -0.15530
 Alpha virt. eigenvalues --    0.13593   0.17095   0.23518   0.24215   0.25190
 Alpha virt. eigenvalues --    0.27581   0.28108   0.29996   0.34226   0.35659
 Alpha virt. eigenvalues --    0.39342   0.40104   0.41710   0.45610   0.48048

 Mulliken charges:
               1
     1  O   -0.496263
     2  H    0.175167
     3  Br  -0.936463
     4  H    0.257560
 Sum of Mulliken charges =  -1.00000

 Dipole moment (field-independent basis, Debye):
    X=              3.9366    Y=             12.7693    Z=              0.3349  Tot=             13.3665
 Quadrupole moment (field-independent basis, Debye-Ang):
   XX=            -31.0303   YY=            -75.6534   ZZ=            -31.3785
   XY=             -8.6001   XZ=             -0.1317   YZ=             -0.2337

 Summary of Natural Population Analysis:

                                       Natural Population
                Natural  -----------------------------------------------
    Atom  No    Charge         Core      Valence    Rydberg      Total
 -----------------------------------------------------------------------
      O    1   -0.97585      1.99968     6.86795    0.10822     8.97585
      H    2    0.44474      0.00000     0.54837    0.00689     0.55526
     Br    3   -0.95899     27.98846     7.81237    0.15817    35.95899
      H    4    0.49010      0.00000     0.48934    0.02056     0.50990
 =======================================================================
   * Total *   -1.00000     29.98813    15.71803    0.29384    46.00000

 Normal termination of Gaussian 16 at Wed Oct 20 14:55:24 2021.
