 Gaussian 16, Revision B.01,
 Gaussian 16:  ES64L-G16RevB.01 20-Dec-2017

 ----------------------------------------------------
 # opt=(z-matrix) mp2/gen Pseudo=read density=current
 ----------------------------------------------------

 -----
 title
 -----
 Symbolic Z-matrix:
 Charge = -1 Multiplicity = 1

 SCF Done:  E(RHF) =  -491.651457677     A.U. after   11 cycles
 E2 =    -0.5181327507D+00 EUMP2 =    -0.49216959042765D+03
 Optimization completed.
    -- Stationary point found.
 SCF Done:  E(RHF) =  -491.651261427     A.U. after   10 cycles
 E2 =    -0.5180859444D+00 EUMP2 =    -0.49216934737153D+03
 SCF Done:  E(RHF) =  -491.651280163     A.U. after    6 cycles
 E2 =    -0.5180673387D+00 EUMP2 =    -0.49216934750140D+03
 Optimization completed.
 SCF Done:  E(RHF) =  -491.650698032     A.U. after   10 cycles
 E2 =    -0.5179347240D+00 EUMP2 =    -0.49216863275549D+03
 SCF Done:  E(RHF) =  -491.650754164     A.U. after    7 cycles
 E2 =    -0.5178797324D+00 EUMP2 =    -0.49216863389600D+03
 SCF Done:  E(RHF) =  -491.649806629     A.U. after   10 cycles
 E2 =    -0.5176791884D+00 EUMP2 =    -0.49216748581749D+03
 SCF Done:  E(RHF) =  -491.649915125     A.U. after    7 cycles
 E2 =    -0.5175737263D+00 EUMP2 =    -0.49216748885138D+03
 SCF Done:  E(RHF) =  -491.648636603     A.U. after   10 cycles
 E2 =    -0.5173252019D+00 EUMP2 =    -0.49216596180513D+03
 SCF Done:  E(RHF) =  -491.648753618     A.U. after    7 cycles
 E2 =    -0.5172118657D+00 EUMP2 =    -0.49216596548337D+03
 SCF Done:  E(RHF) =  -491.647187454     A.U. after   10 cycles
 E2 =    -0.5169338093D+00 EUMP2 =    -0.49216412126381D+03
 E2 =    -0.5168120223D+00 EUMP2 =    -0.49216412578833D+03
 SCF Done:  E(RHF) =  -491.645510188     A.U. after   10 cycles
 E2 =    -0.5165218741D+00 EUMP2 =    -0.49216203206233D+03
 SCF Done:  E(RHF) =  -491.645635547     A.U. after    7 cycles
 E2 =    -0.5164012718D+00 EUMP2 =    -0.49216203681847D+03
 SCF Done:  E(RHF) =  -491.643646830     A.U. after   10 cycles
 E2 =    -0.5161153408D+00 EUMP2 =    -0.49215976217071D+03
 SCF Done:  E(RHF) =  -491.643763193     A.U. after    7 cycles
 E2 =    -0.5160033861D+00 EUMP2 =    -0.49215976657888D+03
 SCF Done:  E(RHF) =  -491.641639469     A.U. after   10 cycles
 E2 =    -0.5157368093D+00 EUMP2 =    -0.49215737627853D+03
 SCF Done:  E(RHF) =  -491.641741465     A.U. after    7 cycles
 E2 =    -0.5156384710D+00 EUMP2 =    -0.49215737993637D+03
 SCF Done:  E(RHF) =  -491.639527528     A.U. after   10 cycles
 E2 =    -0.5154047670D+00 EUMP2 =    -0.49215493229463D+03
 SCF Done:  E(RHF) =  -491.639612136     A.U. after    7 cycles
 E2 =    -0.5153228750D+00 EUMP2 =    -0.49215493501127D+03
    -- Stationary point found.
 SCF Done:  E(RHF) =  -491.637345714     A.U. after   10 cycles
 E2 =    -0.5151328801D+00 EUMP2 =    -0.49215247859369D+03
 SCF Done:  E(RHF) =  -491.637411860     A.U. after    7 cycles
 E2 =    -0.5150685190D+00 EUMP2 =    -0.49215248037866D+03
 Optimization completed.
    -- Stationary point found.

                         Standard orientation:
 ---------------------------------------------------------------------
 Center     Atomic      Atomic             Coordinates (Angstroms)
 Number     Number       Type             X           Y           Z
 ---------------------------------------------------------------------
      1          8           0       -2.535280    0.087209    0.082019
      2          1           0       -2.759504   -0.826103   -0.113196
      3         35           0        0.713350   -0.002853    0.003310
      4          1           0       -1.925509    0.228298   -0.658804
 ---------------------------------------------------------------------

 The electronic state is 1-A.
 Alpha  occ. eigenvalues --  -20.40713  -9.52820  -7.27590  -7.27575  -7.27545
 Alpha  occ. eigenvalues --   -2.82704  -2.82702  -2.82667  -2.82652  -2.82644
 Alpha  occ. eigenvalues --   -1.19234  -0.72005  -0.53756  -0.43790  -0.35083
 Alpha  occ. eigenvalues --   -0.14601  -0.14424  -0.14190
 Alpha virt. eigenvalues --    0.13532   0.16155   0.24889   0.26087   0.27771
 Alpha virt. eigenvalues --    0.28132   0.28422   0.30392   0.32483   0.35689
 Alpha virt. eigenvalues --    0.36965   0.38711   0.42162   0.45341   0.47420

 Mulliken charges:
               1
     1  O   -0.444144
     2  H    0.188238
     3  Br  -0.969614
     4  H    0.225519
 Sum of Mulliken charges =  -1.00000

 Dipole moment (field-independent basis, Debye):
    X=             -2.1245    Y=             -1.1052    Z=             -1.0307  Tot=              2.6071
 Quadrupole moment (field-independent basis, Debye-Ang):
   XX=            -38.8834   YY=            -29.5784   ZZ=            -30.4546
   XY=              3.9543   XZ=              2.5403   YZ=             -0.1467

 Normal termination of Gaussian 16 at Wed Oct 20 14:35:27 2021.
