 Gaussian 16, Revision B.01,
 Gaussian 16:  ES64L-G16RevB.01 20-Dec-2017

 ----------------------------------------------------
 #p pop=NBO SP NoSymm mp2/aug-cc-pvtz density=current
 ----------------------------------------------------

 -----
 title
 -----
 Symbolic Z-matrix:
 Charge = -1 Multiplicity = 1

                          Input orientation:
 ---------------------------------------------------------------------
 Center     Atomic      Atomic             Coordinates (Angstroms)
 Number     Number       Type             X           Y           Z
 ---------------------------------------------------------------------
      1          8           0        0.000000    0.000000    0.000000
      2          1           0        0.960482    0.000000    0.000000
      3         35           0       -0.656753   -3.183800    0.000000
      4          1           0       -0.199614   -0.967686    0.000000
 ---------------------------------------------------------------------

 SCF Done:  E(RHF) =  -2648.60711935     A.U. after   11 cycles
 E2 =    -0.5190643621D+00 EUMP2 =    -0.26491261837162D+04

 Alpha  occ. eigenvalues -- -489.74069 -64.88095 -58.23543 -58.23542 -58.23542
 Alpha  occ. eigenvalues --  -20.38804  -9.55341  -7.16098  -7.16075  -7.16072
 Alpha  occ. eigenvalues --   -2.90263  -2.90255  -2.90250  -2.90228  -2.90227
 Alpha  occ. eigenvalues --   -1.16933  -0.71240  -0.52646  -0.41547  -0.33283
 Alpha  occ. eigenvalues --   -0.16662  -0.16131  -0.16088
 Alpha virt. eigenvalues --    0.13598   0.17396   0.23364   0.24171   0.24847
 Alpha virt. eigenvalues --    0.27538   0.29621   0.29921   0.33887   0.34909
 Alpha virt. eigenvalues --    0.39894   0.41088   0.41678   0.46423   0.48136

 Mulliken charges:
               1
     1  O   -0.537859
     2  H    0.167157
     3  Br  -0.920998
     4  H    0.291700
 Sum of Mulliken charges =  -1.00000

 Dipole moment (field-independent basis, Debye):
    X=              3.8534    Y=             12.3538    Z=             -0.0000  Tot=             12.9408
 Quadrupole moment (field-independent basis, Debye-Ang):
   XX=            -30.8268   YY=            -73.9116   ZZ=            -31.6860
   XY=             -8.2694   XZ=              0.0000   YZ=              0.0000

 Summary of Natural Population Analysis:

                                       Natural Population
                Natural  -----------------------------------------------
    Atom  No    Charge         Core      Valence    Rydberg      Total
 -----------------------------------------------------------------------
      O    1   -0.98843      1.99967     6.88602    0.10273     8.98843
      H    2    0.43869      0.00000     0.54921    0.01210     0.56131
     Br    3   -0.93815     27.98837     7.79429    0.15548    35.93815
      H    4    0.48788      0.00000     0.49070    0.02142     0.51212
 =======================================================================
   * Total *   -1.00000     29.98805    15.72022    0.29173    46.00000

 Normal termination of Gaussian 16 at Wed Oct 20 14:54:20 2021.
