 Gaussian 16, Revision B.01,
 Gaussian 16:  ES64L-G16RevB.01 20-Dec-2017

 --------------------------------------------------------
 #p pop=NBO SP NoSymm mp2/gen Pseudo=read density=current
 --------------------------------------------------------

 -----
 title
 -----
 Symbolic Z-matrix:
 Charge = -1 Multiplicity = 1

                          Input orientation:
 ---------------------------------------------------------------------
 Center     Atomic      Atomic             Coordinates (Angstroms)
 Number     Number       Type             X           Y           Z
 ---------------------------------------------------------------------
      1          8           0        0.000000    0.000000    0.000000
      2         35           0        3.067932    0.000000    0.000000
      3         17           0       -0.391810    1.638264    0.000000
      4          1           0        0.811165    0.000000    0.567984
 ---------------------------------------------------------------------

 SCF Done:  E(RHF) =  -950.513691593     A.U. after   14 cycles
 E2 =    -0.6999877376D+00 EUMP2 =    -0.95121367933113D+03

 Alpha  occ. eigenvalues -- -104.73939 -20.47675 -10.45900  -9.54609  -7.92618
 Alpha  occ. eigenvalues --   -7.92347  -7.92332  -7.29398  -7.29350  -7.29336
 Alpha  occ. eigenvalues --   -2.84503  -2.84491  -2.84474  -2.84425  -2.84424
 Alpha  occ. eigenvalues --   -1.24651  -0.90521  -0.74112  -0.55460  -0.45440
 Alpha  occ. eigenvalues --   -0.44551  -0.31674  -0.29025  -0.16801  -0.16205
 Alpha  occ. eigenvalues --   -0.16094
 Alpha virt. eigenvalues --    0.15171   0.17789   0.22121   0.22972   0.25470
 Alpha virt. eigenvalues --    0.26645   0.27158   0.28067   0.28823   0.31088
 Alpha virt. eigenvalues --    0.32809   0.33192   0.36063   0.40203   0.43996

 Mulliken charges:
               1
     1  O   -0.406569
     2  Br  -0.905914
     3  Cl   0.064690
     4  H    0.247793
 Sum of Mulliken charges =  -1.00000

 Dipole moment (field-independent basis, Debye):
    X=            -11.5519    Y=             -0.5440    Z=              0.4643  Tot=             11.5741
 Quadrupole moment (field-independent basis, Debye-Ang):
   XX=            -82.6846   YY=            -42.9777   ZZ=            -42.3511
   XY=              0.4425   XZ=              0.1554   YZ=             -0.1851

 Summary of Natural Population Analysis:

                                       Natural Population
                Natural  -----------------------------------------------
    Atom  No    Charge         Core      Valence    Rydberg      Total
 -----------------------------------------------------------------------
      O    1   -0.72432      1.99971     6.61453    0.11009     8.72432
     Br    2   -0.93445     27.98847     7.78877    0.15720    35.93445
     Cl    3    0.16336      9.99983     6.69282    0.14399    16.83664
      H    4    0.49541      0.00000     0.48095    0.02364     0.50459
 =======================================================================
   * Total *   -1.00000     39.98801    21.57707    0.43492    62.00000

 Normal termination of Gaussian 16 at Thu Sep 30 14:41:15 2021.
