 Gaussian 16, Revision B.01,
 Gaussian 16:  ES64L-G16RevB.01 20-Dec-2017

 --------------------------------------------------------
 #p pop=NBO SP NoSymm mp2/gen Pseudo=read density=current
 --------------------------------------------------------

 -----
 title
 -----
 Symbolic Z-matrix:
 Charge = -1 Multiplicity = 1

                          Input orientation:
 ---------------------------------------------------------------------
 Center     Atomic      Atomic             Coordinates (Angstroms)
 Number     Number       Type             X           Y           Z
 ---------------------------------------------------------------------
      1          8           0        0.000000    0.000000    0.000000
      2         35           0        3.067932    0.000000    0.000000
      3         17           0       -0.391810    1.638264    0.000000
      4          1           0        0.629032    0.000000    0.749651
 ---------------------------------------------------------------------

 SCF Done:  E(RHF) =  -950.506251977     A.U. after   14 cycles
 E2 =    -0.6984562530D+00 EUMP2 =    -0.95120470822998D+03

 Alpha  occ. eigenvalues -- -104.74402 -20.48599 -10.46374  -9.53783  -7.93093
 Alpha  occ. eigenvalues --   -7.92818  -7.92801  -7.28565  -7.28529  -7.28509
 Alpha  occ. eigenvalues --   -2.83673  -2.83666  -2.83640  -2.83604  -2.83601
 Alpha  occ. eigenvalues --   -1.25768  -0.91049  -0.73140  -0.56381  -0.46168
 Alpha  occ. eigenvalues --   -0.45243  -0.32234  -0.29564  -0.15768  -0.15400
 Alpha  occ. eigenvalues --   -0.15231
 Alpha virt. eigenvalues --    0.14747   0.17516   0.21881   0.22967   0.25758
 Alpha virt. eigenvalues --    0.26641   0.27091   0.27897   0.28371   0.31102
 Alpha virt. eigenvalues --    0.31816   0.33409   0.35790   0.39431   0.43802

 Mulliken charges:
               1
     1  O   -0.375249
     2  Br  -0.934810
     3  Cl   0.073572
     4  H    0.236487
 Sum of Mulliken charges =  -1.00000

 Dipole moment (field-independent basis, Debye):
    X=            -12.2781    Y=             -0.4862    Z=              0.7137  Tot=             12.3085
 Quadrupole moment (field-independent basis, Debye-Ang):
   XX=            -85.2978   YY=            -42.9987   ZZ=            -41.9230
   XY=              0.4656   XZ=              0.1772   YZ=             -0.2566

 Summary of Natural Population Analysis:

                                       Natural Population
                Natural  -----------------------------------------------
    Atom  No    Charge         Core      Valence    Rydberg      Total
 -----------------------------------------------------------------------
      O    1   -0.69302      1.99971     6.58275    0.11055     8.69302
     Br    2   -0.96582     27.98858     7.81656    0.16068    35.96582
     Cl    3    0.16520      9.99984     6.69047    0.14449    16.83480
      H    4    0.49363      0.00000     0.48678    0.01958     0.50637
 =======================================================================
   * Total *   -1.00000     39.98813    21.57657    0.43531    62.00000

 Normal termination of Gaussian 16 at Thu Sep 30 14:42:13 2021.
