 Gaussian 16, Revision B.01,
 Gaussian 16:  ES64L-G16RevB.01 20-Dec-2017

 --------------------------------------------------------
 #p pop=NBO SP NoSymm mp2/gen Pseudo=read density=current
 --------------------------------------------------------

 -----
 title
 -----
 Symbolic Z-matrix:
 Charge = -1 Multiplicity = 1

                          Input orientation:
 ---------------------------------------------------------------------
 Center     Atomic      Atomic             Coordinates (Angstroms)
 Number     Number       Type             X           Y           Z
 ---------------------------------------------------------------------
      1          8           0        0.000000    0.000000    0.000000
      2         35           0        3.067932    0.000000    0.000000
      3         17           0       -0.391810    1.638264    0.000000
      4          1           0        0.999403    0.000000    0.176222
 ---------------------------------------------------------------------

 SCF Done:  E(RHF) =  -950.521921922     A.U. after   13 cycles
 E2 =    -0.7030620741D+00 EUMP2 =    -0.95122498399566D+03

 Alpha  occ. eigenvalues -- -104.73137 -20.46211 -10.45087  -9.55801  -7.91804
 Alpha  occ. eigenvalues --   -7.91540  -7.91529  -7.30601  -7.30534  -7.30534
 Alpha  occ. eigenvalues --   -2.85703  -2.85678  -2.85677  -2.85614  -2.85614
 Alpha  occ. eigenvalues --   -1.22887  -0.89553  -0.75614  -0.53952  -0.44237
 Alpha  occ. eigenvalues --   -0.43410  -0.30808  -0.28082  -0.18325  -0.17367
 Alpha  occ. eigenvalues --   -0.17352
 Alpha virt. eigenvalues --    0.15593   0.18169   0.22382   0.23158   0.25132
 Alpha virt. eigenvalues --    0.26521   0.26765   0.28638   0.30416   0.30997
 Alpha virt. eigenvalues --    0.32740   0.33034   0.35910   0.42741   0.43793

 Mulliken charges:
               1
     1  O   -0.482091
     2  Br  -0.860581
     3  Cl   0.047790
     4  H    0.294881
 Sum of Mulliken charges =  -1.00000

 Dipole moment (field-independent basis, Debye):
    X=            -10.5512    Y=             -0.6589    Z=              0.1133  Tot=             10.5724
 Quadrupole moment (field-independent basis, Debye-Ang):
   XX=            -78.9200   YY=            -42.9971   ZZ=            -42.7817
   XY=              0.4434   XZ=              0.0264   YZ=             -0.0544

 Summary of Natural Population Analysis:

                                       Natural Population
                Natural  -----------------------------------------------
    Atom  No    Charge         Core      Valence    Rydberg      Total
 -----------------------------------------------------------------------
      O    1   -0.76369      1.99970     6.65358    0.11041     8.76369
     Br    2   -0.86800     27.98816     7.72732    0.15252    35.86800
     Cl    3    0.15786      9.99980     6.69815    0.14418    16.84214
      H    4    0.47383      0.00000     0.49789    0.02828     0.52617
 =======================================================================
   * Total *   -1.00000     39.98766    21.57695    0.43539    62.00000

 Normal termination of Gaussian 16 at Thu Sep 30 14:39:28 2021.
