 Gaussian 16, Revision B.01,
 Gaussian 16:  ES64L-G16RevB.01 20-Dec-2017

 --------------------------------------------------------
 #p pop=NBO SP NoSymm mp2/gen Pseudo=read density=current
 --------------------------------------------------------

 -----
 title
 -----
 Symbolic Z-matrix:
 Charge = -1 Multiplicity = 1

                          Input orientation:
 ---------------------------------------------------------------------
 Center     Atomic      Atomic             Coordinates (Angstroms)
 Number     Number       Type             X           Y           Z
 ---------------------------------------------------------------------
      1          8           0        0.000000    0.000000    0.000000
      2         35           0        3.067932    0.000000    0.000000
      3         17           0       -0.391810    1.638264    0.000000
      4          1           0        0.906788    0.000000    0.422842
 ---------------------------------------------------------------------

 SCF Done:  E(RHF) =  -950.517878020     A.U. after   13 cycles
 E2 =    -0.7013056043D+00 EUMP2 =    -0.95121918362451D+03

 Alpha  occ. eigenvalues -- -104.73585 -20.47013 -10.45541  -9.55162  -7.92258
 Alpha  occ. eigenvalues --   -7.91990  -7.91978  -7.29956  -7.29899  -7.29891
 Alpha  occ. eigenvalues --   -2.85059  -2.85042  -2.85033  -2.84976  -2.84976
 Alpha  occ. eigenvalues --   -1.23854  -0.90099  -0.74793  -0.54784  -0.44903
 Alpha  occ. eigenvalues --   -0.44041  -0.31277  -0.28611  -0.17508  -0.16744
 Alpha  occ. eigenvalues --   -0.16674
 Alpha virt. eigenvalues --    0.15394   0.17970   0.22268   0.23014   0.25299
 Alpha virt. eigenvalues --    0.26610   0.27011   0.28337   0.29451   0.30933
 Alpha virt. eigenvalues --    0.32994   0.33223   0.36094   0.41084   0.43980

 Mulliken charges:
               1
     1  O   -0.440019
     2  Br  -0.886215
     3  Cl   0.057089
     4  H    0.269146
 Sum of Mulliken charges =  -1.00000

 Dipole moment (field-independent basis, Debye):
    X=            -11.0828    Y=             -0.5934    Z=              0.3101  Tot=             11.1030
 Quadrupole moment (field-independent basis, Debye-Ang):
   XX=            -80.9293   YY=            -42.9795   ZZ=            -42.5772
   XY=              0.4391   XZ=              0.0991   YZ=             -0.1343

 Summary of Natural Population Analysis:

                                       Natural Population
                Natural  -----------------------------------------------
    Atom  No    Charge         Core      Valence    Rydberg      Total
 -----------------------------------------------------------------------
      O    1   -0.74435      1.99970     6.63436    0.11029     8.74435
     Br    2   -0.90575     27.98835     7.76250    0.15490    35.90575
     Cl    3    0.16118      9.99982     6.69508    0.14392    16.83882
      H    4    0.48892      0.00000     0.48505    0.02603     0.51108
 =======================================================================
   * Total *   -1.00000     39.98787    21.57699    0.43514    62.00000

 Normal termination of Gaussian 16 at Thu Sep 30 14:40:27 2021.
