 Gaussian 16, Revision B.01,
 Gaussian 16:  ES64L-G16RevB.01 20-Dec-2017

 --------------------------------------------------------
 #p pop=NBO SP NoSymm mp2/gen Pseudo=read density=current
 --------------------------------------------------------

 -----
 title
 -----
 Symbolic Z-matrix:
 Charge = -1 Multiplicity = 1

                          Input orientation:
 ---------------------------------------------------------------------
 Center     Atomic      Atomic             Coordinates (Angstroms)
 Number     Number       Type             X           Y           Z
 ---------------------------------------------------------------------
      1          8           0        0.000000    0.000000    0.000000
      2         35           0        3.067932    0.000000    0.000000
      3         17           0       -0.391810    1.638264    0.000000
      4          1           0        0.976339    0.000000    0.261609
 ---------------------------------------------------------------------

 SCF Done:  E(RHF) =  -950.520931559     A.U. after   13 cycles
 E2 =    -0.7025683948D+00 EUMP2 =    -0.95122349995391D+03

 Alpha  occ. eigenvalues -- -104.73260 -20.46428 -10.45212  -9.55631  -7.91929
 Alpha  occ. eigenvalues --   -7.91663  -7.91652  -7.30430  -7.30365  -7.30363
 Alpha  occ. eigenvalues --   -2.85532  -2.85509  -2.85506  -2.85444  -2.85444
 Alpha  occ. eigenvalues --   -1.23148  -0.89704  -0.75392  -0.54178  -0.44419
 Alpha  occ. eigenvalues --   -0.43582  -0.30933  -0.28228  -0.18109  -0.17201
 Alpha  occ. eigenvalues --   -0.17171
 Alpha virt. eigenvalues --    0.15547   0.18118   0.22360   0.23106   0.25174
 Alpha virt. eigenvalues --    0.26549   0.26838   0.28567   0.30334   0.30676
 Alpha virt. eigenvalues --    0.32816   0.33219   0.35982   0.42206   0.43876

 Mulliken charges:
               1
     1  O   -0.471798
     2  Br  -0.867376
     3  Cl   0.050344
     4  H    0.288830
 Sum of Mulliken charges =  -1.00000

 Dipole moment (field-independent basis, Debye):
    X=            -10.6916    Y=             -0.6407    Z=              0.1743  Tot=             10.7122
 Quadrupole moment (field-independent basis, Debye-Ang):
   XX=            -79.4517   YY=            -42.9909   ZZ=            -42.7327
   XY=              0.4415   XZ=              0.0459   YZ=             -0.0814

 Summary of Natural Population Analysis:

                                       Natural Population
                Natural  -----------------------------------------------
    Atom  No    Charge         Core      Valence    Rydberg      Total
 -----------------------------------------------------------------------
      O    1   -0.75902      1.99970     6.64891    0.11041     8.75902
     Br    2   -0.87837     27.98822     7.73703    0.15312    35.87837
     Cl    3    0.15882      9.99981     6.69729    0.14407    16.84118
      H    4    0.47856      0.00000     0.49369    0.02774     0.52144
 =======================================================================
   * Total *   -1.00000     39.98772    21.57693    0.43535    62.00000

 Normal termination of Gaussian 16 at Thu Sep 30 14:39:47 2021.
