 Gaussian 16, Revision B.01,
 Gaussian 16:  ES64L-G16RevB.01 20-Dec-2017

 --------------------------------------------------------
 #p pop=NBO SP NoSymm mp2/gen Pseudo=read density=current
 --------------------------------------------------------

 -----
 title
 -----
 Symbolic Z-matrix:
 Charge = -1 Multiplicity = 1

                          Input orientation:
 ---------------------------------------------------------------------
 Center     Atomic      Atomic             Coordinates (Angstroms)
 Number     Number       Type             X           Y           Z
 ---------------------------------------------------------------------
      1          8           0        0.000000    0.000000    0.000000
      2         35           0        3.067932    0.000000    0.000000
      3         17           0       -0.391810    1.638264    0.000000
      4          1           0        1.018060    0.000000    0.000000
 ---------------------------------------------------------------------

 SCF Done:  E(RHF) =  -950.522744518     A.U. after   13 cycles
 E2 =    -0.7034870457D+00 EUMP2 =    -0.95122623156396D+03

 Alpha  occ. eigenvalues -- -104.73032 -20.46025 -10.44982  -9.55944  -7.91698
 Alpha  occ. eigenvalues --   -7.91435  -7.91425  -7.30745  -7.30677  -7.30676
 Alpha  occ. eigenvalues --   -2.85848  -2.85821  -2.85819  -2.85757  -2.85757
 Alpha  occ. eigenvalues --   -1.22670  -0.89427  -0.75802  -0.53768  -0.44083
 Alpha  occ. eigenvalues --   -0.43266  -0.30705  -0.27958  -0.18507  -0.17509
 Alpha  occ. eigenvalues --   -0.17504
 Alpha virt. eigenvalues --    0.15627   0.18210   0.22395   0.23213   0.25096
 Alpha virt. eigenvalues --    0.26495   0.26697   0.28683   0.30274   0.31976
 Alpha virt. eigenvalues --    0.32366   0.32698   0.35832   0.43426   0.43532

 Mulliken charges:
               1
     1  O   -0.489474
     2  Br  -0.855471
     3  Cl   0.045574
     4  H    0.299370
 Sum of Mulliken charges =  -1.00000

 Dipole moment (field-independent basis, Debye):
    X=            -10.4339    Y=             -0.6743    Z=              0.0000  Tot=             10.4557
 Quadrupole moment (field-independent basis, Debye-Ang):
   XX=            -78.4734   YY=            -43.0021   ZZ=            -42.8213
   XY=              0.4452   XZ=             -0.0000   YZ=             -0.0000

 Summary of Natural Population Analysis:

                                       Natural Population
                Natural  -----------------------------------------------
    Atom  No    Charge         Core      Valence    Rydberg      Total
 -----------------------------------------------------------------------
      O    1   -0.76730      1.99970     6.65723    0.11038     8.76730
     Br    2   -0.85918     27.98811     7.71904    0.15203    35.85918
     Cl    3    0.15703      9.99980     6.69889    0.14428    16.84297
      H    4    0.46945      0.00000     0.50184    0.02870     0.53055
 =======================================================================
   * Total *   -1.00000     39.98761    21.57701    0.43538    62.00000

 Normal termination of Gaussian 16 at Thu Sep 30 14:38:49 2021.
