 Gaussian 16, Revision B.01,
 Gaussian 16:  ES64L-G16RevB.01 20-Dec-2017

 --------------------------------------------------------
 #p pop=NBO SP NoSymm mp2/gen Pseudo=read density=current
 --------------------------------------------------------

 -----
 title
 -----
 Symbolic Z-matrix:
 Charge = -1 Multiplicity = 1

                          Input orientation:
 ---------------------------------------------------------------------
 Center     Atomic      Atomic             Coordinates (Angstroms)
 Number     Number       Type             X           Y           Z
 ---------------------------------------------------------------------
      1          8           0        0.000000    0.000000    0.000000
      2         35           0        3.067932    0.000000    0.000000
      3         17           0       -0.391810    1.638264    0.000000
      4          1           0        1.013768    0.000000    0.088693
 ---------------------------------------------------------------------

 SCF Done:  E(RHF) =  -950.522512887     A.U. after   13 cycles
 E2 =    -0.7034009159D+00 EUMP2 =    -0.95122591380254D+03

 Alpha  occ. eigenvalues -- -104.73055 -20.46070 -10.45005  -9.55911  -7.91722
 Alpha  occ. eigenvalues --   -7.91458  -7.91448  -7.30712  -7.30644  -7.30643
 Alpha  occ. eigenvalues --   -2.85814  -2.85788  -2.85786  -2.85724  -2.85724
 Alpha  occ. eigenvalues --   -1.22714  -0.89453  -0.75758  -0.53802  -0.44117
 Alpha  occ. eigenvalues --   -0.43297  -0.30727  -0.27985  -0.18464  -0.17475
 Alpha  occ. eigenvalues --   -0.17469
 Alpha virt. eigenvalues --    0.15620   0.18201   0.22392   0.23199   0.25105
 Alpha virt. eigenvalues --    0.26501   0.26714   0.28675   0.30315   0.31567
 Alpha virt. eigenvalues --    0.32642   0.32760   0.35854   0.43173   0.43675

 Mulliken charges:
               1
     1  O   -0.487924
     2  Br  -0.856482
     3  Cl   0.046080
     4  H    0.298326
 Sum of Mulliken charges =  -1.00000

 Dipole moment (field-independent basis, Debye):
    X=            -10.4608    Y=             -0.6710    Z=              0.0557  Tot=             10.4824
 Quadrupole moment (field-independent basis, Debye-Ang):
   XX=            -78.5779   YY=            -43.0021   ZZ=            -42.8112
   XY=              0.4450   XZ=              0.0117   YZ=             -0.0272

 Summary of Natural Population Analysis:

                                       Natural Population
                Natural  -----------------------------------------------
    Atom  No    Charge         Core      Valence    Rydberg      Total
 -----------------------------------------------------------------------
      O    1   -0.76654      1.99970     6.65644    0.11040     8.76654
     Br    2   -0.86120     27.98812     7.72094    0.15215    35.86120
     Cl    3    0.15721      9.99980     6.69873    0.14426    16.84279
      H    4    0.47053      0.00000     0.50087    0.02860     0.52947
 =======================================================================
   * Total *   -1.00000     39.98762    21.57698    0.43540    62.00000

 Normal termination of Gaussian 16 at Thu Sep 30 14:39:08 2021.
