 Gaussian 16, Revision B.01,
 Gaussian 16:  ES64L-G16RevB.01 20-Dec-2017

 ----------------------------------------------------
 # opt=(z-matrix) mp2/gen Pseudo=read density=current
 ----------------------------------------------------

 -----
 title
 -----
 Symbolic Z-matrix:
 Charge = -1 Multiplicity = 1

 SCF Done:  E(RHF) =  -950.522744722     A.U. after   13 cycles
 E2 =    -0.7034868415D+00 EUMP2 =    -0.95122623156299D+03
 Optimization completed.
    -- Stationary point found.
 SCF Done:  E(RHF) =  -950.522487720     A.U. after   11 cycles
 E2 =    -0.7034258945D+00 EUMP2 =    -0.95122591361461D+03
 SCF Done:  E(RHF) =  -950.522513149     A.U. after    7 cycles
 E2 =    -0.7034006494D+00 EUMP2 =    -0.95122591379843D+03
 Optimization completed.
 SCF Done:  E(RHF) =  -950.521749658     A.U. after   11 cycles
 E2 =    -0.7032300815D+00 EUMP2 =    -0.95122497973988D+03
 SCF Done:  E(RHF) =  -950.521866816     A.U. after    8 cycles
 E2 =    -0.7031167325D+00 EUMP2 =    -0.95122498354842D+03
 SCF Done:  E(RHF) =  -950.521921764     A.U. after    7 cycles
 E2 =    -0.7030622247D+00 EUMP2 =    -0.95122498398876D+03
 SCF Done:  E(RHF) =  -950.520683403     A.U. after   12 cycles
 E2 =    -0.7028078808D+00 EUMP2 =    -0.95122349128391D+03
 SCF Done:  E(RHF) =  -950.520931737     A.U. after    9 cycles
 E2 =    -0.7025682149D+00 EUMP2 =    -0.95122349995236D+03
 SCF Done:  E(RHF) =  -950.519269676     A.U. after   12 cycles
 E2 =    -0.7022545614D+00 EUMP2 =    -0.95122152423786D+03
 SCF Done:  E(RHF) =  -950.519572918     A.U. after    9 cycles
 E2 =    -0.7019644447D+00 EUMP2 =    -0.95122153736267D+03
 E2 =    -0.7016130952D+00 EUMP2 =    -0.95121916775385D+03
 E2 =    -0.7013054495D+00 EUMP2 =    -0.95121918362567D+03
 SCF Done:  E(RHF) =  -950.515579315     A.U. after   11 cycles
 E2 =    -0.7009368337D+00 EUMP2 =    -0.95121651614901D+03
 SCF Done:  E(RHF) =  -950.515898666     A.U. after    9 cycles
 E2 =    -0.7006342683D+00 EUMP2 =    -0.95121653293392D+03
 SCF Done:  E(RHF) =  -950.513395252     A.U. after   11 cycles
 E2 =    -0.7002681852D+00 EUMP2 =    -0.95121366343762D+03
 SCF Done:  E(RHF) =  -950.513691566     A.U. after    9 cycles
 E2 =    -0.6999877700D+00 EUMP2 =    -0.95121367933562D+03
 SCF Done:  E(RHF) =  -950.511052778     A.U. after   11 cycles
 E2 =    -0.6996434778D+00 EUMP2 =    -0.95121069625581D+03
 SCF Done:  E(RHF) =  -950.511314792     A.U. after    9 cycles
 E2 =    -0.6993952226D+00 EUMP2 =    -0.95121071001503D+03
 SCF Done:  E(RHF) =  -950.508597982     A.U. after   12 cycles
 E2 =    -0.6990909671D+00 EUMP2 =    -0.95120768894922D+03
 SCF Done:  E(RHF) =  -950.508820569     A.U. after    9 cycles
 E2 =    -0.6988793742D+00 EUMP2 =    -0.95120769994281D+03
    -- Stationary point found.
 SCF Done:  E(RHF) =  -950.506069286     A.U. after   12 cycles
 E2 =    -0.6986308132D+00 EUMP2 =    -0.95120470009878D+03
 SCF Done:  E(RHF) =  -950.506251822     A.U. after    9 cycles
 E2 =    -0.6984564115D+00 EUMP2 =    -0.95120470823332D+03
 Optimization completed.
    -- Stationary point found.

                         Standard orientation:
 ---------------------------------------------------------------------
 Center     Atomic      Atomic             Coordinates (Angstroms)
 Number     Number       Type             X           Y           Z
 ---------------------------------------------------------------------
      1          8           0        1.395469    1.008195   -0.071338
      2         17           0        2.337279   -0.386508    0.000920
      3         35           0       -1.477326   -0.066378   -0.003885
      4          1           0        0.808896    0.828306    0.691050
 ---------------------------------------------------------------------

 The electronic state is 1-A.
 Alpha  occ. eigenvalues -- -104.74402 -20.48599 -10.46374  -9.53783  -7.93093
 Alpha  occ. eigenvalues --   -7.92818  -7.92801  -7.28565  -7.28529  -7.28509
 Alpha  occ. eigenvalues --   -2.83673  -2.83666  -2.83640  -2.83604  -2.83601
 Alpha  occ. eigenvalues --   -1.25768  -0.91049  -0.73140  -0.56380  -0.46168
 Alpha  occ. eigenvalues --   -0.45243  -0.32234  -0.29564  -0.15768  -0.15400
 Alpha  occ. eigenvalues --   -0.15231
 Alpha virt. eigenvalues --    0.14747   0.17516   0.21881   0.22967   0.25758
 Alpha virt. eigenvalues --    0.26641   0.27091   0.27897   0.28371   0.31102
 Alpha virt. eigenvalues --    0.31816   0.33409   0.35790   0.39431   0.43802

 Mulliken charges:
               1
     1  O   -0.375251
     2  Cl   0.073571
     3  Br  -0.934810
     4  H    0.236489
 Sum of Mulliken charges =  -1.00000

 Dipole moment (field-independent basis, Debye):
    X=              4.6261    Y=             -0.0489    Z=              0.7613  Tot=              4.6886
 Quadrupole moment (field-independent basis, Debye-Ang):
   XX=            -58.1310   YY=            -43.0770   ZZ=            -42.0473
   XY=             -2.1824   XZ=              0.8551   YZ=              0.9688

 1\1\GINC-N2110\Scan\RMP2-FC\Gen\Br1Cl1H1O1(1-)\CGAVINH\30-Sep-2021\1\\
 # opt=(z-matrix) mp2/gen Pseudo=read density=current\\title\\-1,1\O\X,
 1,10.\Cl,1,r1,2,90.\Br,1,r2,2,90.,3,a1,0\H,1,r3,2,OOP,3,a1,0\\r1=1.684
 46532,s,-1000,0.\r2=3.06793175,s,-1000,0.\r3=0.97860291\a1=103.4502976
 8,s,-1000,0.\OOP=40.,s,10,-5.\\Version=ES64L-G16RevB.01\State=1-A\HF=-
 950.5227447,-950.5225131,-950.5219218,-950.5209317,-950.5195729,-950.5
 178782,-950.5158987,-950.5136916,-950.5113148,-950.5088206,-950.506251
 8\MP2=-951.2262316,-951.2259138,-951.224984,-951.2235,-951.2215374,-95

 Normal termination of Gaussian 16 at Thu Sep 30 14:00:36 2021.
