 Gaussian 16, Revision B.01,
 Gaussian 16:  ES64L-G16RevB.01 20-Dec-2017

 ------------------------------------------------------
 # opt=(z-matrix,tight) mp2/aug-cc-pvtz density=current
 ------------------------------------------------------

 -----
 title
 -----
 Symbolic Z-matrix:
 Charge = -1 Multiplicity = 1

 SCF Done:  E(RHF) =  -994.525297287     A.U. after   13 cycles
 E2 =    -0.6655150406D+00 EUMP2 =    -0.99519081232731D+03
 SCF Done:  E(RHF) =  -994.525270863     A.U. after    7 cycles
 E2 =    -0.6655417101D+00 EUMP2 =    -0.99519081257283D+03
 SCF Done:  E(RHF) =  -994.525258377     A.U. after    6 cycles
 E2 =    -0.6655542275D+00 EUMP2 =    -0.99519081260482D+03
 Optimization completed.
    -- Stationary point found.

                         Standard orientation:
 ---------------------------------------------------------------------
 Center     Atomic      Atomic             Coordinates (Angstroms)
 Number     Number       Type             X           Y           Z
 ---------------------------------------------------------------------
      1          8           0       -1.012819    0.701053   -0.000000
      2         17           0       -1.576017   -0.887038   -0.000000
      3         17           0        2.052638    0.522173    0.000000
      4          1           0       -0.000000    0.594270    0.000000
 ---------------------------------------------------------------------

 The electronic state is 1-A'.
 Alpha  occ. eigenvalues -- -104.73292-104.54575 -20.46440 -10.45242 -10.27010
 Alpha  occ. eigenvalues --   -7.91959  -7.91695  -7.91685  -7.73624  -7.73612
 Alpha  occ. eigenvalues --   -7.73612  -1.22868  -0.89658  -0.78095  -0.53857
 Alpha  occ. eigenvalues --   -0.44339  -0.43478  -0.30929  -0.28227  -0.20015
 Alpha  occ. eigenvalues --   -0.19194  -0.19190
 Alpha virt. eigenvalues --    0.15929   0.18321   0.22593   0.23117   0.25783
 Alpha virt. eigenvalues --    0.27246   0.27588   0.28764   0.30878   0.32457
 Alpha virt. eigenvalues --    0.33235   0.34867   0.38503   0.44690   0.45321

 Mulliken charges:
               1
     1  O   -0.483789
     2  Cl   0.046434
     3  Cl  -0.869899
     4  H    0.307254
 Sum of Mulliken charges =  -1.00000

 Dipole moment (field-independent basis, Debye):
    X=             -5.6939    Y=             -2.1313    Z=             -0.0000  Tot=              6.0797
 Quadrupole moment (field-independent basis, Debye-Ang):
   XX=            -56.6924   YY=            -37.6198   ZZ=            -36.7723
   XY=             -3.5339   XZ=             -0.0000   YZ=             -0.0000

 Normal termination of Gaussian 16 at Mon Sep 13 16:42:17 2021.
