 Gaussian 16, Revision B.01,
 Gaussian 16:  ES64L-G16RevB.01 20-Dec-2017

 ----------------------------------------------------
 #p pop=NBO SP NoSymm mp2/aug-cc-pvtz density=current
 ----------------------------------------------------

 -----
 title
 -----
 Symbolic Z-matrix:
 Charge = -1 Multiplicity = 1

                          Input orientation:
 ---------------------------------------------------------------------
 Center     Atomic      Atomic             Coordinates (Angstroms)
 Number     Number       Type             X           Y           Z
 ---------------------------------------------------------------------
      1          8           0        0.000000    0.000000    0.000000
      2         35           0        3.073817    0.000000    0.000000
      3         17           0       -0.390921    1.638333    0.000000
      4          1           0        0.906571    0.000000    0.422741
 ---------------------------------------------------------------------

 SCF Done:  E(RHF) =  -3107.47358712     A.U. after   13 cycles
 E2 =    -0.7021199436D+00 EUMP2 =    -0.31081757070617D+04

 Alpha  occ. eigenvalues -- -489.74878-104.73610 -64.88911 -58.24362 -58.24356
 Alpha  occ. eigenvalues --  -58.24354 -20.47044 -10.45566  -9.56162  -7.92284
 Alpha  occ. eigenvalues --   -7.92015  -7.92003  -7.16937  -7.16889  -7.16883
 Alpha  occ. eigenvalues --   -2.91108  -2.91090  -2.91081  -2.91023  -2.91023
 Alpha  occ. eigenvalues --   -1.23896  -0.90123  -0.72206  -0.54781  -0.44934
 Alpha  occ. eigenvalues --   -0.44074  -0.31301  -0.28636  -0.17689  -0.16925
 Alpha  occ. eigenvalues --   -0.16856
 Alpha virt. eigenvalues --    0.15395   0.17905   0.21679   0.22617   0.24169
 Alpha virt. eigenvalues --    0.24817   0.25031   0.28332   0.29118   0.30817
 Alpha virt. eigenvalues --    0.32845   0.33437   0.36620   0.41082   0.44237

 Mulliken charges:
               1
     1  O   -0.435930
     2  Br  -0.879559
     3  Cl   0.059037
     4  H    0.256452
 Sum of Mulliken charges =  -1.00000

 Dipole moment (field-independent basis, Debye):
    X=            -11.1233    Y=             -0.5912    Z=              0.3163  Tot=             11.1435
 Quadrupole moment (field-independent basis, Debye-Ang):
   XX=            -81.4816   YY=            -43.3198   ZZ=            -42.9247
   XY=              0.4328   XZ=              0.1155   YZ=             -0.1352

 Summary of Natural Population Analysis:

                                       Natural Population
                Natural  -----------------------------------------------
    Atom  No    Charge         Core      Valence    Rydberg      Total
 -----------------------------------------------------------------------
      O    1   -0.74488      1.99970     6.63489    0.11029     8.74488
     Br    2   -0.90614     27.98825     7.76218    0.15571    35.90614
     Cl    3    0.16158      9.99982     6.69479    0.14381    16.83842
      H    4    0.48944      0.00000     0.48468    0.02588     0.51056
 =======================================================================
   * Total *   -1.00000     39.98777    21.57654    0.43569    62.00000

 Normal termination of Gaussian 16 at Thu Sep 23 16:34:20 2021.
