 Gaussian 16, Revision B.01,
 Gaussian 16:  ES64L-G16RevB.01 20-Dec-2017

 ----------------------------------------------------
 #p pop=NBO SP NoSymm mp2/aug-cc-pvtz density=current
 ----------------------------------------------------

 -----
 title
 -----
 Symbolic Z-matrix:
 Charge = -1 Multiplicity = 1

                          Input orientation:
 ---------------------------------------------------------------------
 Center     Atomic      Atomic             Coordinates (Angstroms)
 Number     Number       Type             X           Y           Z
 ---------------------------------------------------------------------
      1          8           0        0.000000    0.000000    0.000000
      2         35           0        3.073817    0.000000    0.000000
      3         17           0       -0.390921    1.638333    0.000000
      4          1           0        0.694195    0.000000    0.694195
 ---------------------------------------------------------------------

 SCF Done:  E(RHF) =  -3107.46457136     A.U. after   14 cycles
 E2 =    -0.6996243234D+00 EUMP2 =    -0.31081641956860D+04

 Alpha  occ. eigenvalues -- -489.73771-104.74281 -64.87799 -58.23251 -58.23246
 Alpha  occ. eigenvalues --  -58.23241 -20.48333 -10.46249  -9.55050  -7.92968
 Alpha  occ. eigenvalues --   -7.92694  -7.92678  -7.15816  -7.15783  -7.15767
 Alpha  occ. eigenvalues --   -2.89989  -2.89981  -2.89958  -2.89917  -2.89914
 Alpha  occ. eigenvalues --   -1.25450  -0.90912  -0.70842  -0.56105  -0.45964
 Alpha  occ. eigenvalues --   -0.45057  -0.32078  -0.29420  -0.16285  -0.15846
 Alpha  occ. eigenvalues --   -0.15696
 Alpha virt. eigenvalues --    0.14908   0.17561   0.21702   0.22535   0.24319
 Alpha virt. eigenvalues --    0.25065   0.25166   0.27625   0.27970   0.31027
 Alpha virt. eigenvalues --    0.32204   0.33486   0.36437   0.39612   0.44088

 Mulliken charges:
               1
     1  O   -0.382135
     2  Br  -0.924067
     3  Cl   0.073237
     4  H    0.232966
 Sum of Mulliken charges =  -1.00000

 Dipole moment (field-independent basis, Debye):
    X=            -12.0741    Y=             -0.5011    Z=              0.6389  Tot=             12.1014
 Quadrupole moment (field-independent basis, Debye-Ang):
   XX=            -84.9866   YY=            -43.3291   ZZ=            -42.4181
   XY=              0.4489   XZ=              0.2059   YZ=             -0.2345

 Summary of Natural Population Analysis:

                                       Natural Population
                Natural  -----------------------------------------------
    Atom  No    Charge         Core      Valence    Rydberg      Total
 -----------------------------------------------------------------------
      O    1   -0.70291      1.99971     6.59303    0.11017     8.70291
     Br    2   -0.95813     27.98846     7.80937    0.16030    35.95813
     Cl    3    0.16510      9.99984     6.69083    0.14423    16.83490
      H    4    0.49594      0.00000     0.48333    0.02072     0.50406
 =======================================================================
   * Total *   -1.00000     39.98801    21.57657    0.43542    62.00000

 Normal termination of Gaussian 16 at Thu Sep 23 16:35:40 2021.
