 Gaussian 16, Revision B.01,
 Gaussian 16:  ES64L-G16RevB.01 20-Dec-2017

 ----------------------------------------------------
 #p pop=NBO SP NoSymm mp2/aug-cc-pvtz density=current
 ----------------------------------------------------

 -----
 title
 -----
 Symbolic Z-matrix:
 Charge = -1 Multiplicity = 1

                          Input orientation:
 ---------------------------------------------------------------------
 Center     Atomic      Atomic             Coordinates (Angstroms)
 Number     Number       Type             X           Y           Z
 ---------------------------------------------------------------------
      1          8           0        0.000000    0.000000    0.000000
      2         35           0        3.073817    0.000000    0.000000
      3         17           0       -0.390921    1.638333    0.000000
      4          1           0        0.811026    0.000000    0.567887
 ---------------------------------------------------------------------

 SCF Done:  E(RHF) =  -3107.46942070     A.U. after   14 cycles
 E2 =    -0.7007587097D+00 EUMP2 =    -0.31081701794062D+04

 Alpha  occ. eigenvalues -- -489.74329-104.73961 -64.88358 -58.23810 -58.23804
 Alpha  occ. eigenvalues --  -58.23801 -20.47702 -10.45922  -9.55609  -7.92641
 Alpha  occ. eigenvalues --   -7.92369  -7.92355  -7.16380  -7.16339  -7.16328
 Alpha  occ. eigenvalues --   -2.90551  -2.90539  -2.90523  -2.90472  -2.90471
 Alpha  occ. eigenvalues --   -1.24688  -0.90542  -0.71515  -0.55463  -0.45466
 Alpha  occ. eigenvalues --   -0.44581  -0.31696  -0.29047  -0.16986  -0.16388
 Alpha  occ. eigenvalues --   -0.16278
 Alpha virt. eigenvalues --    0.15177   0.17736   0.21720   0.22543   0.24227
 Alpha virt. eigenvalues --    0.24947   0.25085   0.27988   0.28426   0.30975
 Alpha virt. eigenvalues --    0.32840   0.33251   0.36635   0.40193   0.44234

 Mulliken charges:
               1
     1  O   -0.403687
     2  Br  -0.901486
     3  Cl   0.066748
     4  H    0.238425
 Sum of Mulliken charges =  -1.00000

 Dipole moment (field-independent basis, Debye):
    X=            -11.5896    Y=             -0.5423    Z=              0.4721  Tot=             11.6119
 Quadrupole moment (field-independent basis, Debye-Ang):
   XX=            -83.2246   YY=            -43.3179   ZZ=            -42.6975
   XY=              0.4361   XZ=              0.1757   YZ=             -0.1862

 Summary of Natural Population Analysis:

                                       Natural Population
                Natural  -----------------------------------------------
    Atom  No    Charge         Core      Valence    Rydberg      Total
 -----------------------------------------------------------------------
      O    1   -0.72451      1.99971     6.61476    0.11004     8.72451
     Br    2   -0.93509     27.98838     7.78874    0.15797    35.93509
     Cl    3    0.16370      9.99983     6.69257    0.14391    16.83630
      H    4    0.49590      0.00000     0.48064    0.02346     0.50410
 =======================================================================
   * Total *   -1.00000     39.98792    21.57671    0.43537    62.00000

 Normal termination of Gaussian 16 at Thu Sep 23 16:35:00 2021.
