 Gaussian 16, Revision B.01,
 Gaussian 16:  ES64L-G16RevB.01 20-Dec-2017

 ----------------------------------------------------
 #p pop=NBO SP NoSymm mp2/aug-cc-pvtz density=current
 ----------------------------------------------------

 -----
 title
 -----
 Symbolic Z-matrix:
 Charge = -1 Multiplicity = 1

                          Input orientation:
 ---------------------------------------------------------------------
 Center     Atomic      Atomic             Coordinates (Angstroms)
 Number     Number       Type             X           Y           Z
 ---------------------------------------------------------------------
      1          8           0        0.000000    0.000000    0.000000
      2         35           0        3.073817    0.000000    0.000000
      3         17           0       -0.390921    1.638333    0.000000
      4          1           0        1.013279    0.000000    0.088650
 ---------------------------------------------------------------------

 SCF Done:  E(RHF) =  -3107.47820805     A.U. after   13 cycles
 E2 =    -0.7042440814D+00 EUMP2 =    -0.31081824521352D+04

 Alpha  occ. eigenvalues -- -489.75617-104.73085 -64.89655 -58.25105 -58.25100
 Alpha  occ. eigenvalues --  -58.25100 -20.46106 -10.45035  -9.56909  -7.91752
 Alpha  occ. eigenvalues --   -7.91488  -7.91478  -7.17692  -7.17634  -7.17633
 Alpha  occ. eigenvalues --   -2.91863  -2.91835  -2.91834  -2.91769  -2.91769
 Alpha  occ. eigenvalues --   -1.22766  -0.89481  -0.73183  -0.53796  -0.44156
 Alpha  occ. eigenvalues --   -0.43337  -0.30757  -0.28016  -0.18637  -0.17653
 Alpha  occ. eigenvalues --   -0.17647
 Alpha virt. eigenvalues --    0.15612   0.18117   0.21576   0.22790   0.24123
 Alpha virt. eigenvalues --    0.24636   0.25006   0.28718   0.30390   0.31375
 Alpha virt. eigenvalues --    0.32434   0.32824   0.35934   0.43288   0.43901

 Mulliken charges:
               1
     1  O   -0.491730
     2  Br  -0.847476
     3  Cl   0.048551
     4  H    0.290656
 Sum of Mulliken charges =  -1.00000

 Dipole moment (field-independent basis, Debye):
    X=            -10.5058    Y=             -0.6680    Z=              0.0571  Tot=             10.5271
 Quadrupole moment (field-independent basis, Debye-Ang):
   XX=            -79.1489   YY=            -43.3424   ZZ=            -43.1608
   XY=              0.4392   XZ=              0.0156   YZ=             -0.0274

 Summary of Natural Population Analysis:

                                       Natural Population
                Natural  -----------------------------------------------
    Atom  No    Charge         Core      Valence    Rydberg      Total
 -----------------------------------------------------------------------
      O    1   -0.76742      1.99970     6.65730    0.11043     8.76742
     Br    2   -0.86117     27.98802     7.72013    0.15302    35.86117
     Cl    3    0.15768      9.99980     6.69839    0.14413    16.84232
      H    4    0.47091      0.00000     0.50060    0.02848     0.52909
 =======================================================================
   * Total *   -1.00000     39.98752    21.57642    0.43606    62.00000

 Normal termination of Gaussian 16 at Thu Sep 23 16:32:59 2021.
