 Gaussian 09, Revision E.01,
 Gaussian 09:  ES64L-G09RevE.01 30-Nov-2015

 --------------------------------------------------------
 #p pop=NBO SP NoSymm mp2/gen Pseudo=read density=current
 --------------------------------------------------------

 -----
 title
 -----
 Symbolic Z-matrix:
 Charge = -1 Multiplicity = 1

                          Input orientation:
 ---------------------------------------------------------------------
 Center     Atomic      Atomic             Coordinates (Angstroms)
 Number     Number       Type             X           Y           Z
 ---------------------------------------------------------------------
      1          8           0        0.000000    0.000000    0.000000
      2         17           0        1.686522    0.000000    0.000000
      3         53           0       -0.758922   -3.224184    0.000000
      4          1           0       -0.309315   -1.314087    0.000000
 ---------------------------------------------------------------------

 SCF Done:  E(RHF) =  -829.640993482     A.U. after   14 cycles
 E2 =    -0.7008987840D+00 EUMP2 =    -0.83034189226584D+03

 Alpha  occ. eigenvalues -- -104.69900 -20.42138 -10.41872  -7.88582  -7.88353
 Alpha  occ. eigenvalues --   -7.88346  -7.51363  -5.34080  -5.33816  -5.33813
 Alpha  occ. eigenvalues --   -2.06892  -2.06739  -2.06735  -2.06448  -2.06448
 Alpha  occ. eigenvalues --   -1.15406  -0.84771  -0.68334  -0.45040  -0.39895
 Alpha  occ. eigenvalues --   -0.38991  -0.27871  -0.24394  -0.19414  -0.18327
 Alpha  occ. eigenvalues --   -0.18285
 Alpha virt. eigenvalues --    0.15719   0.18800   0.21278   0.23024   0.23881
 Alpha virt. eigenvalues --    0.24644   0.25079   0.29062   0.30310   0.31643
 Alpha virt. eigenvalues --    0.32064   0.32101   0.35503   0.36188   0.36891

 Mulliken charges:
               1
     1  O   -0.586190
     2  Cl   0.001375
     3  I   -0.543287
     4  H    0.128102
 Sum of Mulliken charges =  -1.00000

 Dipole moment (field-independent basis, Debye):
    X=              0.7976    Y=              8.5396    Z=             -0.0000  Tot=              8.5768
 Quadrupole moment (field-independent basis, Debye-Ang):
   XX=            -55.9305   YY=            -82.4366   ZZ=            -52.7022
   XY=             -7.4000   XZ=             -0.0000   YZ=             -0.0000

 Summary of Natural Population Analysis:

                                       Natural Population
                Natural  -----------------------------------------------
    Atom  No    Charge         Core      Valence    Rydberg      Total
 -----------------------------------------------------------------------
      O    1   -0.82539      1.99983     6.71027    0.11529     8.82539
     Cl    2    0.12382      9.99974     6.72237    0.15407    16.87618
      I    3   -0.60888     45.98169     7.46884    0.15836    53.60888
      H    4    0.31045      0.00000     0.65956    0.02998     0.68955
 =======================================================================
   * Total *   -1.00000     57.98126    21.56104    0.45769    80.00000

 Normal termination of Gaussian 09 at Tue Oct 12 15:37:27 2021.
