 Gaussian 09, Revision E.01,
 Gaussian 09:  ES64L-G09RevE.01 30-Nov-2015

 --------------------------------------------------------
 #p pop=NBO SP NoSymm mp2/gen Pseudo=read density=current
 --------------------------------------------------------

 -----
 title
 -----
 Symbolic Z-matrix:
 Charge = -1 Multiplicity = 1

                          Input orientation:
 ---------------------------------------------------------------------
 Center     Atomic      Atomic             Coordinates (Angstroms)
 Number     Number       Type             X           Y           Z
 ---------------------------------------------------------------------
      1          8           0        0.000000    0.000000    0.000000
      2         17           0        1.686522    0.000000    0.000000
      3         53           0       -0.758922   -3.224184    0.000000
      4          1           0       -0.297859   -1.265417    0.000000
 ---------------------------------------------------------------------

 SCF Done:  E(RHF) =  -829.647096272     A.U. after   14 cycles
 E2 =    -0.6992700093D+00 EUMP2 =    -0.83034636628152D+03

 Alpha  occ. eigenvalues -- -104.70637 -20.43293 -10.42605  -7.89316  -7.89081
 Alpha  occ. eigenvalues --   -7.89072  -7.50704  -5.33396  -5.33170  -5.33166
 Alpha  occ. eigenvalues --   -2.06196  -2.06066  -2.06062  -2.05817  -2.05817
 Alpha  occ. eigenvalues --   -1.16645  -0.85667  -0.67600  -0.46322  -0.40835
 Alpha  occ. eigenvalues --   -0.39940  -0.28309  -0.25238  -0.19012  -0.17781
 Alpha  occ. eigenvalues --   -0.17750
 Alpha virt. eigenvalues --    0.15684   0.18645   0.21324   0.23038   0.23977
 Alpha virt. eigenvalues --    0.24604   0.25032   0.29035   0.30178   0.31550
 Alpha virt. eigenvalues --    0.31779   0.31946   0.35402   0.36416   0.37011

 Mulliken charges:
               1
     1  O   -0.567084
     2  Cl   0.009711
     3  I   -0.597221
     4  H    0.154594
 Sum of Mulliken charges =  -1.00000

 Dipole moment (field-independent basis, Debye):
    X=              1.0227    Y=              9.0558    Z=              0.0000  Tot=              9.1134
 Quadrupole moment (field-independent basis, Debye-Ang):
   XX=            -55.8946   YY=            -84.2915   ZZ=            -52.8091
   XY=             -7.8188   XZ=             -0.0000   YZ=             -0.0000

 Summary of Natural Population Analysis:

                                       Natural Population
                Natural  -----------------------------------------------
    Atom  No    Charge         Core      Valence    Rydberg      Total
 -----------------------------------------------------------------------
      O    1   -0.81848      1.99982     6.70409    0.11457     8.81848
     Cl    2    0.13097      9.99974     6.71757    0.15171    16.86903
      I    3   -0.65096     45.98190     7.50917    0.15989    53.65096
      H    4    0.33847      0.00000     0.63167    0.02986     0.66153
 =======================================================================
   * Total *   -1.00000     57.98146    21.56250    0.45604    80.00000

 Normal termination of Gaussian 09 at Tue Oct 12 15:37:10 2021.
