 Gaussian 09, Revision E.01,
 Gaussian 09:  ES64L-G09RevE.01 30-Nov-2015

 --------------------------------------------------------
 #p pop=NBO SP NoSymm mp2/gen Pseudo=read density=current
 --------------------------------------------------------

 -----
 title
 -----
 Symbolic Z-matrix:
 Charge = -1 Multiplicity = 1

                          Input orientation:
 ---------------------------------------------------------------------
 Center     Atomic      Atomic             Coordinates (Angstroms)
 Number     Number       Type             X           Y           Z
 ---------------------------------------------------------------------
      1          8           0        0.000000    0.000000    0.000000
      2         17           0        1.686522    0.000000    0.000000
      3         53           0       -0.758922   -3.224184    0.000000
      4          1           0       -0.252035   -1.070737    0.000000
 ---------------------------------------------------------------------

 SCF Done:  E(RHF) =  -829.675974646     A.U. after   14 cycles
 E2 =    -0.6886423225D+00 EUMP2 =    -0.83036461696896D+03

 Alpha  occ. eigenvalues -- -104.73200 -20.46751 -10.45153  -7.91868  -7.91608
 Alpha  occ. eigenvalues --   -7.91598  -7.48561  -5.31170  -5.31067  -5.31064
 Alpha  occ. eigenvalues --   -2.03940  -2.03877  -2.03875  -2.03764  -2.03764
 Alpha  occ. eigenvalues --   -1.21683  -0.89105  -0.65261  -0.52096  -0.44143
 Alpha  occ. eigenvalues --   -0.43283  -0.30702  -0.28118  -0.17137  -0.15975
 Alpha  occ. eigenvalues --   -0.15962
 Alpha virt. eigenvalues --    0.15408   0.17954   0.21486   0.22802   0.24037
 Alpha virt. eigenvalues --    0.24813   0.25130   0.28181   0.29756   0.30909
 Alpha virt. eigenvalues --    0.31157   0.31301   0.34911   0.37152   0.37662

 Mulliken charges:
               1
     1  O   -0.517121
     2  Cl   0.040331
     3  I   -0.778447
     4  H    0.255237
 Sum of Mulliken charges =  -1.00000

 Dipole moment (field-independent basis, Debye):
    X=              1.8510    Y=             10.9058    Z=             -0.0000  Tot=             11.0618
 Quadrupole moment (field-independent basis, Debye-Ang):
   XX=            -55.7154   YY=            -90.9941   ZZ=            -53.1726
   XY=             -9.3213   XZ=              0.0000   YZ=              0.0000

 Summary of Natural Population Analysis:

                                       Natural Population
                Natural  -----------------------------------------------
    Atom  No    Charge         Core      Valence    Rydberg      Total
 -----------------------------------------------------------------------
      O    1   -0.79090      1.99975     6.67866    0.11249     8.79090
     Cl    2    0.15658      9.99977     6.69919    0.14446    16.84342
      I    3   -0.80913     45.98280     7.66209    0.16425    53.80913
      H    4    0.44346      0.00000     0.52642    0.03012     0.55654
 =======================================================================
   * Total *   -1.00000     57.98232    21.56636    0.45132    80.00000

 Normal termination of Gaussian 09 at Tue Oct 12 15:36:01 2021.
