 Gaussian 16, Revision B.01,
 Gaussian 16:  ES64L-G16RevB.01 20-Dec-2017

 -----------------------------------------------------
 #p opt=(z-matrix) mp2/gen Pseudo=read density=current
 -----------------------------------------------------

 -----
 title
 -----
 Symbolic Z-matrix:
 Charge = -1 Multiplicity = 1

 SCF Done:  E(RHF) =  -829.354810732     A.U. after   13 cycles
 E2 =    -0.6615411134D+00 EUMP2 =    -0.83001635184577D+03
 Optimization completed.
    -- Stationary point found.
 SCF Done:  E(RHF) =  -829.476996474     A.U. after   11 cycles
 E2 =    -0.6634684846D+00 EUMP2 =    -0.83014046495842D+03
 Optimization completed.
 SCF Done:  E(RHF) =  -829.559955537     A.U. after   11 cycles
 E2 =    -0.6656425492D+00 EUMP2 =    -0.83022559808632D+03
 SCF Done:  E(RHF) =  -829.615102927     A.U. after   11 cycles
 E2 =    -0.6680279582D+00 EUMP2 =    -0.83028313088483D+03
 SCF Done:  E(RHF) =  -829.650430581     A.U. after   11 cycles
 E2 =    -0.6706010952D+00 EUMP2 =    -0.83032103167629D+03
 SCF Done:  E(RHF) =  -829.671619591     A.U. after   11 cycles
 E2 =    -0.6733435652D+00 EUMP2 =    -0.83034496315578D+03
 SCF Done:  E(RHF) =  -829.682762742     A.U. after   11 cycles
 E2 =    -0.6762357048D+00 EUMP2 =    -0.83035899844712D+03
 SCF Done:  E(RHF) =  -829.686841724     A.U. after   11 cycles
 E2 =    -0.6792516104D+00 EUMP2 =    -0.83036609333438D+03
 SCF Done:  E(RHF) =  -829.686050528     A.U. after   11 cycles
 E2 =    -0.6823566504D+00 EUMP2 =    -0.83036840717805D+03
 SCF Done:  E(RHF) =  -829.682019895     A.U. after   11 cycles
 E2 =    -0.6855061237D+00 EUMP2 =    -0.83036752601905D+03
 E2 =    -0.6886423171D+00 EUMP2 =    -0.83036461696648D+03
 E2 =    -0.6916899373D+00 EUMP2 =    -0.83036053255521D+03
 E2 =    -0.6945533330D+00 EUMP2 =    -0.83035588065132D+03
 E2 =    -0.6971196168D+00 EUMP2 =    -0.83035107347476D+03
 E2 =    -0.6992700153D+00 EUMP2 =    -0.83034636629076D+03
 E2 =    -0.7008987918D+00 EUMP2 =    -0.83034189227680D+03
 E2 =    -0.7019352631D+00 EUMP2 =    -0.83033769489932D+03
 E2 =    -0.7023615833D+00 EUMP2 =    -0.83033375454002D+03
 E2 =    -0.7022192062D+00 EUMP2 =    -0.83033000435645D+03
 SCF Done:  E(RHF) =  -829.624731569     A.U. after   12 cycles
 E2 =    -0.7016013619D+00 EUMP2 =    -0.83032633293119D+03
 SCF Done:  E(RHF) =  -829.621941072     A.U. after   12 cycles
 E2 =    -0.7006345714D+00 EUMP2 =    -0.83032257564352D+03
 SCF Done:  E(RHF) =  -829.619043874     A.U. after   13 cycles
 E2 =    -0.6994562628D+00 EUMP2 =    -0.83031850013707D+03
 SCF Done:  E(RHF) =  -829.615595709     A.U. after   13 cycles
 E2 =    -0.6981956097D+00 EUMP2 =    -0.83031379131882D+03
 SCF Done:  E(RHF) =  -829.611076942     A.U. after   13 cycles
 E2 =    -0.6969618079D+00 EUMP2 =    -0.83030803875017D+03
 SCF Done:  E(RHF) =  -829.604885681     A.U. after   14 cycles
 E2 =    -0.6958403848D+00 EUMP2 =    -0.83030072606602D+03
 SCF Done:  E(RHF) =  -829.596324205     A.U. after   14 cycles
 E2 =    -0.6948955550D+00 EUMP2 =    -0.83029121976052D+03
 SCF Done:  E(RHF) =  -829.584578129     A.U. after   14 cycles
 E2 =    -0.6941758654D+00 EUMP2 =    -0.83027875399400D+03
 SCF Done:  E(RHF) =  -829.568687564     A.U. after   14 cycles
 E2 =    -0.6937205924D+00 EUMP2 =    -0.83026240815627D+03
    -- Stationary point found.
 SCF Done:  E(RHF) =  -829.547509225     A.U. after   14 cycles
 E2 =    -0.6935655084D+00 EUMP2 =    -0.83024107473304D+03
 Optimization completed.
    -- Stationary point found.

                         Standard orientation:
 ---------------------------------------------------------------------
 Center     Atomic      Atomic             Coordinates (Angstroms)
 Number     Number       Type             X           Y           Z
 ---------------------------------------------------------------------
      1          8           0       -1.813388   -1.233201    0.000000
      2         17           0       -2.856185    0.092291    0.000000
      3         53           0        1.189854    0.163892    0.000000
      4          1           0        0.000000   -0.389622    0.000000
 ---------------------------------------------------------------------

 The electronic state is 1-A'.
 Alpha  occ. eigenvalues -- -104.63510 -20.31381 -10.35504  -7.82203  -7.82030
 Alpha  occ. eigenvalues --   -7.82028  -7.57772  -5.40951  -5.40073  -5.40069
 Alpha  occ. eigenvalues --   -2.14434  -2.13359  -2.13354  -2.12610  -2.12610
 Alpha  occ. eigenvalues --   -1.05563  -0.80608  -0.77150  -0.41302  -0.31917
 Alpha  occ. eigenvalues --   -0.31348  -0.30448  -0.23924  -0.23885  -0.16608
 Alpha  occ. eigenvalues --   -0.16585
 Alpha virt. eigenvalues --    0.14805   0.19111   0.20971   0.21802   0.23037
 Alpha virt. eigenvalues --    0.25536   0.26379   0.28442   0.31033   0.31938
 Alpha virt. eigenvalues --    0.32128   0.33554   0.33942   0.36036   0.39037

 Mulliken charges:
               1
     1  O   -0.818814
     2  Cl  -0.113676
     3  I   -0.587951
     4  H    0.520441
 Sum of Mulliken charges =  -1.00000

 Dipole moment (field-independent basis, Debye):
    X=              7.4409    Y=              2.8025    Z=              0.0000  Tot=              7.9512
 Quadrupole moment (field-independent basis, Debye-Ang):
   XX=            -74.2750   YY=            -55.4746   ZZ=            -51.3936
   XY=             -5.9262   XZ=              0.0000   YZ=              0.0000

 Normal termination of Gaussian 16 at Wed Dec  1 12:05:15 2021.
