 Gaussian 09, Revision E.01,
 Gaussian 09:  ES64L-G09RevE.01 30-Nov-2015

 --------------------------------------------------------
 #p pop=NBO SP NoSymm mp2/gen Pseudo=read density=current
 --------------------------------------------------------

 -----
 title
 -----
 Symbolic Z-matrix:
 Charge = -1 Multiplicity = 1

                          Input orientation:
 ---------------------------------------------------------------------
 Center     Atomic      Atomic             Coordinates (Angstroms)
 Number     Number       Type             X           Y           Z
 ---------------------------------------------------------------------
      1          8           0        0.000000    0.000000    0.000000
      2         17           0        1.686522    0.000000    0.000000
      3         53           0       -0.758922   -3.224184    0.000000
      4          1           0       -0.229122   -0.973398    0.000000
 ---------------------------------------------------------------------

 SCF Done:  E(RHF) =  -829.686050525     A.U. after   13 cycles
 E2 =    -0.6823566575D+00 EUMP2 =    -0.83036840718268D+03

 Alpha  occ. eigenvalues -- -104.74177 -20.47576 -10.46122  -7.92838  -7.92568
 Alpha  occ. eigenvalues --   -7.92558  -7.47833  -5.30416  -5.30351  -5.30349
 Alpha  occ. eigenvalues --   -2.03176  -2.03134  -2.03132  -2.03063  -2.03063
 Alpha  occ. eigenvalues --   -1.24362  -0.90723  -0.64472  -0.55136  -0.45423
 Alpha  occ. eigenvalues --   -0.44588  -0.31822  -0.29194  -0.16361  -0.15338
 Alpha  occ. eigenvalues --   -0.15329
 Alpha virt. eigenvalues --    0.15240   0.17644   0.21541   0.22631   0.24015
 Alpha virt. eigenvalues --    0.24969   0.25244   0.27574   0.29604   0.30601
 Alpha virt. eigenvalues --    0.30728   0.31248   0.34716   0.37404   0.37888

 Mulliken charges:
               1
     1  O   -0.484737
     2  Cl   0.055220
     3  I   -0.840049
     4  H    0.269565
 Sum of Mulliken charges =  -1.00000

 Dipole moment (field-independent basis, Debye):
    X=              2.1917    Y=             11.6259    Z=              0.0000  Tot=             11.8307
 Quadrupole moment (field-independent basis, Debye-Ang):
   XX=            -55.5865   YY=            -93.5842   ZZ=            -53.2862
   XY=             -9.8994   XZ=             -0.0000   YZ=             -0.0000

 Summary of Natural Population Analysis:

                                       Natural Population
                Natural  -----------------------------------------------
    Atom  No    Charge         Core      Valence    Rydberg      Total
 -----------------------------------------------------------------------
      O    1   -0.76129      1.99970     6.65130    0.11029     8.76129
     Cl    2    0.16572      9.99980     6.69205    0.14242    16.83428
      I    3   -0.87428     45.98327     7.72510    0.16590    53.87428
      H    4    0.46984      0.00000     0.50013    0.03003     0.53016
 =======================================================================
   * Total *   -1.00000     57.98277    21.56858    0.44865    80.00000

 Normal termination of Gaussian 09 at Tue Oct 12 15:35:27 2021.
