 Gaussian 09, Revision E.01,
 Gaussian 09:  ES64L-G09RevE.01 30-Nov-2015

 --------------------------------------------------------
 #p pop=NBO SP NoSymm mp2/gen Pseudo=read density=current
 --------------------------------------------------------

 -----
 title
 -----
 Symbolic Z-matrix:
 Charge = -1 Multiplicity = 1

                          Input orientation:
 ---------------------------------------------------------------------
 Center     Atomic      Atomic             Coordinates (Angstroms)
 Number     Number       Type             X           Y           Z
 ---------------------------------------------------------------------
      1          8           0        0.000000    0.000000    0.000000
      2         17           0        1.686522    0.000000    0.000000
      3         53           0       -0.758922   -3.224184    0.000000
      4          1           0       -0.240578   -1.022068    0.000000
 ---------------------------------------------------------------------

 SCF Done:  E(RHF) =  -829.682019893     A.U. after   13 cycles
 E2 =    -0.6855061315D+00 EUMP2 =    -0.83036752602417D+03

 Alpha  occ. eigenvalues -- -104.73714 -20.47242 -10.45662  -7.92379  -7.92113
 Alpha  occ. eigenvalues --   -7.92103  -7.48170  -5.30765  -5.30683  -5.30680
 Alpha  occ. eigenvalues --   -2.03529  -2.03478  -2.03476  -2.03388  -2.03388
 Alpha  occ. eigenvalues --   -1.22992  -0.89919  -0.64836  -0.53617  -0.44814
 Alpha  occ. eigenvalues --   -0.43966  -0.31281  -0.28684  -0.16729  -0.15635
 Alpha  occ. eigenvalues --   -0.15625
 Alpha virt. eigenvalues --    0.15324   0.17794   0.21514   0.22715   0.24024
 Alpha virt. eigenvalues --    0.24895   0.25187   0.27873   0.29683   0.30748
 Alpha virt. eigenvalues --    0.30943   0.31271   0.34808   0.37286   0.37787

 Mulliken charges:
               1
     1  O   -0.504244
     2  Cl   0.047763
     3  I   -0.811672
     4  H    0.268152
 Sum of Mulliken charges =  -1.00000

 Dipole moment (field-independent basis, Debye):
    X=              2.0286    Y=             11.2857    Z=             -0.0000  Tot=             11.4666
 Quadrupole moment (field-independent basis, Debye-Ang):
   XX=            -55.6550   YY=            -92.3658   ZZ=            -53.2363
   XY=             -9.6274   XZ=             -0.0000   YZ=              0.0000

 Summary of Natural Population Analysis:

                                       Natural Population
                Natural  -----------------------------------------------
    Atom  No    Charge         Core      Valence    Rydberg      Total
 -----------------------------------------------------------------------
      O    1   -0.77823      1.99973     6.66692    0.11158     8.77823
     Cl    2    0.16154      9.99978     6.69537    0.14331    16.83846
      I    3   -0.84327     45.98304     7.69519    0.16504    53.84327
      H    4    0.45996      0.00000     0.50992    0.03012     0.54004
 =======================================================================
   * Total *   -1.00000     57.98255    21.56740    0.45005    80.00000

 Normal termination of Gaussian 09 at Tue Oct 12 15:35:44 2021.
