 Gaussian 09, Revision E.01,
 Gaussian 09:  ES64L-G09RevE.01 30-Nov-2015

 --------------------------------------------------------
 #p pop=NBO SP NoSymm mp2/gen Pseudo=read density=current
 --------------------------------------------------------

 -----
 title
 -----
 Symbolic Z-matrix:
 Charge = -1 Multiplicity = 1

                          Input orientation:
 ---------------------------------------------------------------------
 Center     Atomic      Atomic             Coordinates (Angstroms)
 Number     Number       Type             X           Y           Z
 ---------------------------------------------------------------------
      1          8           0        0.000000    0.000000    0.000000
      2         17           0        1.686522    0.000000    0.000000
      3         53           0       -0.758922   -3.224184    0.000000
      4          1           0       -0.171842   -0.730048    0.000000
 ---------------------------------------------------------------------

 SCF Done:  E(RHF) =  -829.615102927     A.U. after   13 cycles
 E2 =    -0.6680279586D+00 EUMP2 =    -0.83028313088579D+03

 Alpha  occ. eigenvalues -- -104.75931 -20.47183 -10.47850  -7.94570  -7.94283
 Alpha  occ. eigenvalues --   -7.94271  -7.46756  -5.29306  -5.29288  -5.29285
 Alpha  occ. eigenvalues --   -2.02052  -2.02038  -2.02035  -2.02016  -2.02016
 Alpha  occ. eigenvalues --   -1.33337  -0.94844  -0.63942  -0.61617  -0.47787
 Alpha  occ. eigenvalues --   -0.46993  -0.33941  -0.31114  -0.15059  -0.14333
 Alpha  occ. eigenvalues --   -0.14331
 Alpha virt. eigenvalues --    0.14833   0.17078   0.21669   0.22294   0.24069
 Alpha virt. eigenvalues --    0.25172   0.25490   0.26416   0.29070   0.29667
 Alpha virt. eigenvalues --    0.30013   0.31077   0.34237   0.37812   0.38091

 Mulliken charges:
               1
     1  O   -0.267893
     2  Cl   0.087280
     3  I   -0.925513
     4  H    0.106125
 Sum of Mulliken charges =  -1.00000

 Dipole moment (field-independent basis, Debye):
    X=              2.8149    Y=             12.7918    Z=              0.0000  Tot=             13.0978
 Quadrupole moment (field-independent basis, Debye-Ang):
   XX=            -55.1112   YY=            -97.5454   ZZ=            -53.3351
   XY=            -10.7909   XZ=              0.0000   YZ=             -0.0000

 Summary of Natural Population Analysis:

                                       Natural Population
                Natural  -----------------------------------------------
    Atom  No    Charge         Core      Valence    Rydberg      Total
 -----------------------------------------------------------------------
      O    1   -0.61517      1.99936     6.51176    0.10405     8.61517
     Cl    2    0.17600      9.99989     6.68333    0.14078    16.82400
      I    3   -0.96604     45.98394     7.81129    0.17081    53.96604
      H    4    0.40521      0.00000     0.56581    0.02897     0.59479
 =======================================================================
   * Total *   -1.00000     57.98319    21.57219    0.44462    80.00000

 Normal termination of Gaussian 09 at Tue Oct 12 15:34:03 2021.
