 Gaussian 09, Revision E.01,
 Gaussian 09:  ES64L-G09RevE.01 30-Nov-2015

 --------------------------------------------------------
 #p pop=NBO SP NoSymm mp2/gen Pseudo=read density=current
 --------------------------------------------------------

 -----
 title
 -----
 Symbolic Z-matrix:
 Charge = -1 Multiplicity = 1

                          Input orientation:
 ---------------------------------------------------------------------
 Center     Atomic      Atomic             Coordinates (Angstroms)
 Number     Number       Type             X           Y           Z
 ---------------------------------------------------------------------
      1          8           0        0.000000    0.000000    0.000000
      2         17           0        1.686522    0.000000    0.000000
      3         53           0       -0.758922   -3.224184    0.000000
      4          1           0       -0.332227   -1.411427    0.000000
 ---------------------------------------------------------------------

 SCF Done:  E(RHF) =  -829.631392954     A.U. after   15 cycles
 E2 =    -0.7023615818D+00 EUMP2 =    -0.83033375453554D+03

 Alpha  occ. eigenvalues -- -104.68413 -20.39700 -10.40391  -7.87099  -7.86884
 Alpha  occ. eigenvalues --   -7.86878  -7.52739  -5.35510  -5.35167  -5.35163
 Alpha  occ. eigenvalues --   -2.08351  -2.08145  -2.08141  -2.07768  -2.07768
 Alpha  occ. eigenvalues --   -1.13020  -0.83012  -0.69933  -0.42795  -0.38008
 Alpha  occ. eigenvalues --   -0.37082  -0.27581  -0.22671  -0.19886  -0.19457
 Alpha  occ. eigenvalues --   -0.19307
 Alpha virt. eigenvalues --    0.15721   0.19035   0.21205   0.22886   0.23638
 Alpha virt. eigenvalues --    0.24802   0.25274   0.28977   0.30504   0.31830
 Alpha virt. eigenvalues --    0.32315   0.32610   0.35631   0.35709   0.36876

 Mulliken charges:
               1
     1  O   -0.632105
     2  Cl  -0.016762
     3  I   -0.434600
     4  H    0.083467
 Sum of Mulliken charges =  -1.00000

 Dipole moment (field-independent basis, Debye):
    X=              0.3373    Y=              7.4777    Z=             -0.0000  Tot=              7.4853
 Quadrupole moment (field-independent basis, Debye-Ang):
   XX=            -56.0039   YY=            -78.6531   ZZ=            -52.4823
   XY=             -6.5418   XZ=              0.0000   YZ=              0.0000

 Summary of Natural Population Analysis:

                                       Natural Population
                Natural  -----------------------------------------------
    Atom  No    Charge         Core      Valence    Rydberg      Total
 -----------------------------------------------------------------------
      O    1   -0.84179      1.99985     6.72649    0.11545     8.84179
     Cl    2    0.10970      9.99975     6.73199    0.15856    16.89030
      I    3   -0.52421     45.98124     7.38947    0.15350    53.52421
      H    4    0.25631      0.00000     0.70808    0.03561     0.74369
 =======================================================================
   * Total *   -1.00000     57.98084    21.55604    0.46311    80.00000

 Normal termination of Gaussian 09 at Tue Oct 12 15:38:01 2021.
