 Gaussian 09, Revision E.01,
 Gaussian 09:  ES64L-G09RevE.01 30-Nov-2015

 --------------------------------------------------------
 #p pop=NBO SP NoSymm mp2/gen Pseudo=read density=current
 --------------------------------------------------------

 -----
 title
 -----
 Symbolic Z-matrix:
 Charge = -1 Multiplicity = 1

                          Input orientation:
 ---------------------------------------------------------------------
 Center     Atomic      Atomic             Coordinates (Angstroms)
 Number     Number       Type             X           Y           Z
 ---------------------------------------------------------------------
      1          8           0        0.000000    0.000000    0.000000
      2         17           0        1.686522    0.000000    0.000000
      3         53           0       -0.758922   -3.224184    0.000000
      4          1           0       -0.183298   -0.778718    0.000000
 ---------------------------------------------------------------------

 SCF Done:  E(RHF) =  -829.650430581     A.U. after   13 cycles
 E2 =    -0.6706010974D+00 EUMP2 =    -0.83032103167817D+03

 Alpha  occ. eigenvalues -- -104.75636 -20.47495 -10.47561  -7.94280  -7.93996
 Alpha  occ. eigenvalues --   -7.93985  -7.46908  -5.29463  -5.29440  -5.29437
 Alpha  occ. eigenvalues --   -2.02211  -2.02193  -2.02191  -2.02166  -2.02166
 Alpha  occ. eigenvalues --   -1.31132  -0.93998  -0.63726  -0.60688  -0.47380
 Alpha  occ. eigenvalues --   -0.46585  -0.33585  -0.30791  -0.15260  -0.14483
 Alpha  occ. eigenvalues --   -0.14480
 Alpha virt. eigenvalues --    0.14911   0.17170   0.21643   0.22350   0.24049
 Alpha virt. eigenvalues --    0.25157   0.25448   0.26599   0.29192   0.29878
 Alpha virt. eigenvalues --    0.30115   0.31133   0.34355   0.37748   0.38081

 Mulliken charges:
               1
     1  O   -0.311277
     2  Cl   0.081737
     3  I   -0.914353
     4  H    0.143893
 Sum of Mulliken charges =  -1.00000

 Dipole moment (field-independent basis, Debye):
    X=              2.7111    Y=             12.6193    Z=             -0.0000  Tot=             12.9072
 Quadrupole moment (field-independent basis, Debye-Ang):
   XX=            -55.2245   YY=            -96.9991   ZZ=            -53.3495
   XY=            -10.6664   XZ=              0.0000   YZ=              0.0000

 Summary of Natural Population Analysis:

                                       Natural Population
                Natural  -----------------------------------------------
    Atom  No    Charge         Core      Valence    Rydberg      Total
 -----------------------------------------------------------------------
      O    1   -0.65291      1.99947     6.54854    0.10489     8.65291
     Cl    2    0.17518      9.99988     6.68407    0.14088    16.82482
      I    3   -0.95625     45.98388     7.80241    0.16995    53.95625
      H    4    0.43398      0.00000     0.53700    0.02902     0.56602
 =======================================================================
   * Total *   -1.00000     57.98323    21.57202    0.44475    80.00000

 Normal termination of Gaussian 09 at Tue Oct 12 15:34:19 2021.
