 Gaussian 09, Revision E.01,
 Gaussian 09:  ES64L-G09RevE.01 30-Nov-2015

 --------------------------------------------------------
 #p pop=NBO SP NoSymm mp2/gen Pseudo=read density=current
 --------------------------------------------------------

 -----
 title
 -----
 Symbolic Z-matrix:
 Charge = -1 Multiplicity = 1

                          Input orientation:
 ---------------------------------------------------------------------
 Center     Atomic      Atomic             Coordinates (Angstroms)
 Number     Number       Type             X           Y           Z
 ---------------------------------------------------------------------
      1          8           0        0.000000    0.000000    0.000000
      2         17           0        1.686522    0.000000    0.000000
      3         53           0       -0.758922   -3.224184    0.000000
      4          1           0       -0.206210   -0.876058    0.000000
 ---------------------------------------------------------------------

 SCF Done:  E(RHF) =  -829.682762741     A.U. after   13 cycles
 E2 =    -0.6762357110D+00 EUMP2 =    -0.83035899845160D+03

 Alpha  occ. eigenvalues -- -104.74973 -20.47799 -10.46909  -7.93627  -7.93350
 Alpha  occ. eigenvalues --   -7.93338  -7.47298  -5.29863  -5.29824  -5.29821
 Alpha  occ. eigenvalues --   -2.02616  -2.02589  -2.02586  -2.02546  -2.02545
 Alpha  occ. eigenvalues --   -1.27413  -0.92339  -0.63927  -0.58089  -0.46482
 Alpha  occ. eigenvalues --   -0.45671  -0.32778  -0.30066  -0.15743  -0.14851
 Alpha  occ. eigenvalues --   -0.14846
 Alpha virt. eigenvalues --    0.15072   0.17382   0.21591   0.22479   0.24019
 Alpha virt. eigenvalues --    0.25087   0.25352   0.27038   0.29417   0.30300
 Alpha virt. eigenvalues --    0.30340   0.31205   0.34550   0.37597   0.38022

 Mulliken charges:
               1
     1  O   -0.413211
     2  Cl   0.069514
     3  I   -0.884063
     4  H    0.227760
 Sum of Mulliken charges =  -1.00000

 Dipole moment (field-independent basis, Debye):
    X=              2.4755    Y=             12.1905    Z=              0.0000  Tot=             12.4393
 Quadrupole moment (field-independent basis, Debye-Ang):
   XX=            -55.4236   YY=            -95.5646   ZZ=            -53.3438
   XY=            -10.3428   XZ=             -0.0000   YZ=             -0.0000

 Summary of Natural Population Analysis:

                                       Natural Population
                Natural  -----------------------------------------------
    Atom  No    Charge         Core      Valence    Rydberg      Total
 -----------------------------------------------------------------------
      O    1   -0.71472      1.99961     6.60791    0.10720     8.71472
     Cl    2    0.17178      9.99984     6.68701    0.14136    16.82822
      I    3   -0.92442     45.98366     7.77282    0.16794    53.92442
      H    4    0.46736      0.00000     0.50308    0.02956     0.53264
 =======================================================================
   * Total *   -1.00000     57.98312    21.57082    0.44606    80.00000

 Normal termination of Gaussian 09 at Tue Oct 12 15:34:53 2021.
