 Gaussian 09, Revision E.01,
 Gaussian 09:  ES64L-G09RevE.01 30-Nov-2015

 --------------------------------------------------------
 #p pop=NBO SP NoSymm mp2/gen Pseudo=read density=current
 --------------------------------------------------------

 -----
 title
 -----
 Symbolic Z-matrix:
 Charge = -1 Multiplicity = 1

                          Input orientation:
 ---------------------------------------------------------------------
 Center     Atomic      Atomic             Coordinates (Angstroms)
 Number     Number       Type             X           Y           Z
 ---------------------------------------------------------------------
      1          8           0        0.000000    0.000000    0.000000
      2         17           0        1.686522    0.000000    0.000000
      3         53           0       -0.758922   -3.224184    0.000000
      4          1           0       -0.263491   -1.119407    0.000000
 ---------------------------------------------------------------------

 SCF Done:  E(RHF) =  -829.668842615     A.U. after   14 cycles
 E2 =    -0.6916899392D+00 EUMP2 =    -0.83036053255403D+03

 Alpha  occ. eigenvalues -- -104.72634 -20.46102 -10.44591  -7.91305  -7.91050
 Alpha  occ. eigenvalues --   -7.91040  -7.49010  -5.31636  -5.31508  -5.31505
 Alpha  occ. eigenvalues --   -2.04412  -2.04336  -2.04333  -2.04195  -2.04195
 Alpha  occ. eigenvalues --   -1.20407  -0.88276  -0.65750  -0.50590  -0.43407
 Alpha  occ. eigenvalues --   -0.42537  -0.30093  -0.27489  -0.17583  -0.16360
 Alpha  occ. eigenvalues --   -0.16344
 Alpha virt. eigenvalues --    0.15489   0.18124   0.21453   0.22886   0.24051
 Alpha virt. eigenvalues --    0.24730   0.25079   0.28480   0.29832   0.31087
 Alpha virt. eigenvalues --    0.31343   0.31369   0.35028   0.36998   0.37515

 Mulliken charges:
               1
     1  O   -0.527400
     2  Cl   0.032909
     3  I   -0.740115
     4  H    0.234606
 Sum of Mulliken charges =  -1.00000

 Dipole moment (field-independent basis, Debye):
    X=              1.6595    Y=             10.4879    Z=             -0.0000  Tot=             10.6184
 Quadrupole moment (field-independent basis, Debye-Ang):
   XX=            -55.7685   YY=            -89.4789   ZZ=            -53.0960
   XY=             -8.9828   XZ=             -0.0000   YZ=              0.0000

 Summary of Natural Population Analysis:

                                       Natural Population
                Natural  -----------------------------------------------
    Atom  No    Charge         Core      Valence    Rydberg      Total
 -----------------------------------------------------------------------
      O    1   -0.80006      1.99977     6.68720    0.11309     8.80006
     Cl    2    0.15090      9.99976     6.70345    0.14589    16.84910
      I    3   -0.77234     45.98256     7.62636    0.16342    53.77234
      H    4    0.42149      0.00000     0.54845    0.03006     0.57851
 =======================================================================
   * Total *   -1.00000     57.98209    21.56546    0.45245    80.00000

 Normal termination of Gaussian 09 at Tue Oct 12 15:36:18 2021.
