 Gaussian 16, Revision B.01,
 Gaussian 16:  ES64L-G16RevB.01 20-Dec-2017

 -----------------------------------------------------
 #p opt=(z-matrix) mp2/gen Pseudo=read density=current
 -----------------------------------------------------

 -----
 title
 -----
 Symbolic Z-matrix:
 Charge = -1 Multiplicity = 1

 SCF Done:  E(RHF) =  -829.354810732     A.U. after   13 cycles
 E2 =    -0.6615411134D+00 EUMP2 =    -0.83001635184578D+03
 SCF Done:  E(RHF) =  -829.622533026     A.U. after   13 cycles
 E2 =    -0.6684654104D+00 EUMP2 =    -0.83029099843650D+03
 SCF Done:  E(RHF) =  -829.679031436     A.U. after   14 cycles
 E2 =    -0.6871591860D+00 EUMP2 =    -0.83036619062236D+03
 SCF Done:  E(RHF) =  -829.686068432     A.U. after   12 cycles
 E2 =    -0.6823353416D+00 EUMP2 =    -0.83036840377332D+03
 SCF Done:  E(RHF) =  -829.685582702     A.U. after    9 cycles
 E2 =    -0.6828635119D+00 EUMP2 =    -0.83036844621356D+03
 Optimization completed.
    -- Stationary point found.

                         Standard orientation:
 ---------------------------------------------------------------------
 Center     Atomic      Atomic             Coordinates (Angstroms)
 Number     Number       Type             X           Y           Z
 ---------------------------------------------------------------------
      1          8           0       -0.297504   -2.160198    0.000000
      2         17           0       -1.980081   -2.044919    0.000000
      3         53           0        0.680027    1.004570    0.000000
      4          1           0       -0.000000   -1.197025    0.000000
 ---------------------------------------------------------------------

 The electronic state is 1-A'.
 Alpha  occ. eigenvalues -- -104.74105 -20.47533 -10.46051  -7.92767  -7.92498
 Alpha  occ. eigenvalues --   -7.92487  -7.47884  -5.30469  -5.30401  -5.30399
 Alpha  occ. eigenvalues --   -2.03229  -2.03186  -2.03184  -2.03113  -2.03113
 Alpha  occ. eigenvalues --   -1.24135  -0.90594  -0.64527  -0.54892  -0.45329
 Alpha  occ. eigenvalues --   -0.44491  -0.31737  -0.29115  -0.16418  -0.15383
 Alpha  occ. eigenvalues --   -0.15374
 Alpha virt. eigenvalues --    0.15254   0.17667   0.21537   0.22644   0.24016
 Alpha virt. eigenvalues --    0.24957   0.25235   0.27622   0.29617   0.30624
 Alpha virt. eigenvalues --    0.30762   0.31251   0.34730   0.37386   0.37874

 Mulliken charges:
               1
     1  O   -0.488508
     2  Cl   0.054019
     3  I   -0.835778
     4  H    0.270268
 Sum of Mulliken charges =  -1.00000

 Dipole moment (field-independent basis, Debye):
    X=             -1.5234    Y=             -1.0227    Z=              0.0000  Tot=              1.8348
 Quadrupole moment (field-independent basis, Debye-Ang):
   XX=            -55.7877   YY=            -65.0446   ZZ=            -53.2791
   XY=             -5.6615   XZ=              0.0000   YZ=              0.0000

 Normal termination of Gaussian 16 at Wed Dec  1 11:33:07 2021.
