 Gaussian 09, Revision E.01,
 Gaussian 09:  ES64L-G09RevE.01 30-Nov-2015

 --------------------------------------------------------
 #p pop=NBO SP NoSymm mp2/gen Pseudo=read density=current
 --------------------------------------------------------

 -----
 title
 -----
 Symbolic Z-matrix:
 Charge = -1 Multiplicity = 1

                          Input orientation:
 ---------------------------------------------------------------------
 Center     Atomic      Atomic             Coordinates (Angstroms)
 Number     Number       Type             X           Y           Z
 ---------------------------------------------------------------------
      1          8           0        0.000000    0.000000    0.000000
      2         17           0        1.686522    0.000000    0.000000
      3         53           0       -0.758922   -3.224184    0.000000
      4          1           0       -0.343683   -1.460096    0.000000
 ---------------------------------------------------------------------

 SCF Done:  E(RHF) =  -829.627785147     A.U. after   15 cycles
 E2 =    -0.7022192054D+00 EUMP2 =    -0.83033000435270D+03

 Alpha  occ. eigenvalues -- -104.67698 -20.38495 -10.39680  -7.86386  -7.86177
 Alpha  occ. eigenvalues --   -7.86172  -7.53419  -5.36218  -5.35836  -5.35832
 Alpha  occ. eigenvalues --   -2.09078  -2.08840  -2.08836  -2.08423  -2.08423
 Alpha  occ. eigenvalues --   -1.11908  -0.82183  -0.70777  -0.41869  -0.37107
 Alpha  occ. eigenvalues --   -0.36167  -0.27781  -0.21849  -0.20183  -0.19998
 Alpha  occ. eigenvalues --   -0.19484
 Alpha virt. eigenvalues --    0.15686   0.19109   0.21183   0.22778   0.23517
 Alpha virt. eigenvalues --    0.24895   0.25405   0.28902   0.30578   0.31910
 Alpha virt. eigenvalues --    0.32369   0.32818   0.35470   0.35666   0.36991

 Mulliken charges:
               1
     1  O   -0.657438
     2  Cl  -0.026711
     3  I   -0.383486
     4  H    0.067635
 Sum of Mulliken charges =  -1.00000

 Dipole moment (field-independent basis, Debye):
    X=              0.1036    Y=              6.9388    Z=              0.0000  Tot=              6.9395
 Quadrupole moment (field-independent basis, Debye-Ang):
   XX=            -56.0443   YY=            -76.7472   ZZ=            -52.3715
   XY=             -6.1077   XZ=             -0.0000   YZ=             -0.0000

 Summary of Natural Population Analysis:

                                       Natural Population
                Natural  -----------------------------------------------
    Atom  No    Charge         Core      Valence    Rydberg      Total
 -----------------------------------------------------------------------
      O    1   -0.85409      1.99986     6.73788    0.11635     8.85409
     Cl    2    0.10197      9.99975     6.73718    0.16109    16.89803
      I    3   -0.48329     45.98099     7.35047    0.15182    53.48329
      H    4    0.23540      0.00000     0.72823    0.03637     0.76460
 =======================================================================
   * Total *   -1.00000     57.98060    21.55376    0.46563    80.00000

 Normal termination of Gaussian 09 at Tue Oct 12 15:38:19 2021.
