 Gaussian 09, Revision E.01,
 Gaussian 09:  ES64L-G09RevE.01 30-Nov-2015

 --------------------------------------------------------
 #p pop=NBO SP NoSymm mp2/gen Pseudo=read density=current
 --------------------------------------------------------

 -----
 title
 -----
 Symbolic Z-matrix:
 Charge = -1 Multiplicity = 1

                          Input orientation:
 ---------------------------------------------------------------------
 Center     Atomic      Atomic             Coordinates (Angstroms)
 Number     Number       Type             X           Y           Z
 ---------------------------------------------------------------------
      1          8           0        0.000000    0.000000    0.000000
      2         17           0        1.686522    0.000000    0.000000
      3         53           0       -0.758922   -3.224184    0.000000
      4          1           0       -0.274947   -1.168077    0.000000
 ---------------------------------------------------------------------

 SCF Done:  E(RHF) =  -829.661327315     A.U. after   14 cycles
 E2 =    -0.6945533320D+00 EUMP2 =    -0.83035588064712D+03

 Alpha  occ. eigenvalues -- -104.72015 -20.45300 -10.43975  -7.90689  -7.90440
 Alpha  occ. eigenvalues --   -7.90430  -7.49519  -5.32165  -5.32007  -5.32004
 Alpha  occ. eigenvalues --   -2.04947  -2.04856  -2.04852  -2.04682  -2.04682
 Alpha  occ. eigenvalues --   -1.19148  -0.87426  -0.66303  -0.49115  -0.42606
 Alpha  occ. eigenvalues --   -0.41726  -0.29469  -0.26797  -0.18059  -0.16791
 Alpha  occ. eigenvalues --   -0.16771
 Alpha virt. eigenvalues --    0.15564   0.18300   0.21415   0.22960   0.24056
 Alpha virt. eigenvalues --    0.24656   0.25039   0.28742   0.29924   0.31287
 Alpha virt. eigenvalues --    0.31399   0.31574   0.35154   0.36824   0.37348

 Mulliken charges:
               1
     1  O   -0.538126
     2  Cl   0.025397
     3  I   -0.696736
     4  H    0.209465
 Sum of Mulliken charges =  -1.00000

 Dipole moment (field-independent basis, Debye):
    X=              1.4560    Y=             10.0362    Z=             -0.0000  Tot=             10.1413
 Quadrupole moment (field-independent basis, Debye-Ang):
   XX=            -55.8153   YY=            -87.8389   ZZ=            -53.0084
   XY=             -8.6158   XZ=             -0.0000   YZ=             -0.0000

 Summary of Natural Population Analysis:

                                       Natural Population
                Natural  -----------------------------------------------
    Atom  No    Charge         Core      Valence    Rydberg      Total
 -----------------------------------------------------------------------
      O    1   -0.80687      1.99979     6.69353    0.11354     8.80687
     Cl    2    0.14464      9.99975     6.70803    0.14758    16.85536
      I    3   -0.73333     45.98233     7.58856    0.16244    53.73333
      H    4    0.39556      0.00000     0.57448    0.02996     0.60444
 =======================================================================
   * Total *   -1.00000     57.98187    21.56461    0.45352    80.00000

 Normal termination of Gaussian 09 at Tue Oct 12 15:36:35 2021.
