 Gaussian 09, Revision E.01,
 Gaussian 09:  ES64L-G09RevE.01 30-Nov-2015

 --------------------------------------------------------
 #p pop=NBO SP NoSymm mp2/gen Pseudo=read density=current
 --------------------------------------------------------

 -----
 title
 -----
 Symbolic Z-matrix:
 Charge = -1 Multiplicity = 1

                          Input orientation:
 ---------------------------------------------------------------------
 Center     Atomic      Atomic             Coordinates (Angstroms)
 Number     Number       Type             X           Y           Z
 ---------------------------------------------------------------------
      1          8           0        0.000000    0.000000    0.000000
      2         17           0        1.686522    0.000000    0.000000
      3         53           0       -0.758922   -3.224184    0.000000
      4          1           0       -0.286403   -1.216747    0.000000
 ---------------------------------------------------------------------

 SCF Done:  E(RHF) =  -829.653953855     A.U. after   14 cycles
 E2 =    -0.6971196132D+00 EUMP2 =    -0.83035107346784D+03

 Alpha  occ. eigenvalues -- -104.71346 -20.44357 -10.43310  -7.90023  -7.89780
 Alpha  occ. eigenvalues --   -7.89772  -7.50086  -5.32753  -5.32563  -5.32560
 Alpha  occ. eigenvalues --   -2.05544  -2.05434  -2.05431  -2.05225  -2.05225
 Alpha  occ. eigenvalues --   -1.17894  -0.86555  -0.66921  -0.47686  -0.41745
 Alpha  occ. eigenvalues --   -0.40857  -0.28861  -0.26044  -0.18545  -0.17266
 Alpha  occ. eigenvalues --   -0.17242
 Alpha virt. eigenvalues --    0.15631   0.18476   0.21371   0.23014   0.24036
 Alpha virt. eigenvalues --    0.24608   0.25021   0.28932   0.30041   0.31465
 Alpha virt. eigenvalues --    0.31520   0.31769   0.35282   0.36629   0.37174

 Mulliken charges:
               1
     1  O   -0.551094
     2  Cl   0.017691
     3  I   -0.648797
     4  H    0.182199
 Sum of Mulliken charges =  -1.00000

 Dipole moment (field-independent basis, Debye):
    X=              1.2428    Y=              9.5566    Z=              0.0000  Tot=              9.6371
 Quadrupole moment (field-independent basis, Debye-Ang):
   XX=            -55.8568   YY=            -86.1004   ZZ=            -52.9119
   XY=             -8.2258   XZ=             -0.0000   YZ=             -0.0000

 Summary of Natural Population Analysis:

                                       Natural Population
                Natural  -----------------------------------------------
    Atom  No    Charge         Core      Valence    Rydberg      Total
 -----------------------------------------------------------------------
      O    1   -0.81261      1.99981     6.69880    0.11400     8.81261
     Cl    2    0.13795      9.99975     6.71277    0.14954    16.86205
      I    3   -0.69266     45.98211     7.54928    0.16126    53.69266
      H    4    0.36732      0.00000     0.60280    0.02987     0.63268
 =======================================================================
   * Total *   -1.00000     57.98166    21.56366    0.45468    80.00000

 Normal termination of Gaussian 09 at Tue Oct 12 15:36:52 2021.
