 Gaussian 09, Revision E.01,
 Gaussian 09:  ES64L-G09RevE.01 30-Nov-2015

 --------------------------------------------------------
 #p pop=NBO SP NoSymm mp2/gen Pseudo=read density=current
 --------------------------------------------------------

 -----
 title
 -----
 Symbolic Z-matrix:
 Charge = -1 Multiplicity = 1

                          Input orientation:
 ---------------------------------------------------------------------
 Center     Atomic      Atomic             Coordinates (Angstroms)
 Number     Number       Type             X           Y           Z
 ---------------------------------------------------------------------
      1          8           0        0.000000    0.000000    0.000000
      2         17           0        1.686522    0.000000    0.000000
      3         53           0       -0.758922   -3.224184    0.000000
      4          1           0       -0.217666   -0.924728    0.000000
 ---------------------------------------------------------------------

 SCF Done:  E(RHF) =  -829.686841722     A.U. after   13 cycles
 E2 =    -0.6792516183D+00 EUMP2 =    -0.83036609334016D+03

 Alpha  occ. eigenvalues -- -104.74595 -20.47759 -10.46535  -7.93253  -7.92979
 Alpha  occ. eigenvalues --   -7.92968  -7.47544  -5.30117  -5.30067  -5.30064
 Alpha  occ. eigenvalues --   -2.02874  -2.02840  -2.02837  -2.02784  -2.02784
 Alpha  occ. eigenvalues --   -1.25824  -0.91528  -0.64168  -0.56635  -0.45977
 Alpha  occ. eigenvalues --   -0.45154  -0.32320  -0.29652  -0.16034  -0.15078
 Alpha  occ. eigenvalues --   -0.15071
 Alpha virt. eigenvalues --    0.15156   0.17506   0.21566   0.22552   0.24013
 Alpha virt. eigenvalues --    0.25033   0.25300   0.27294   0.29515   0.30465
 Alpha virt. eigenvalues --    0.30514   0.31228   0.34633   0.37507   0.37966

 Mulliken charges:
               1
     1  O   -0.454835
     2  Cl   0.062558
     3  I   -0.864015
     4  H    0.256293
 Sum of Mulliken charges =  -1.00000

 Dipole moment (field-independent basis, Debye):
    X=              2.3403    Y=             11.9268    Z=              0.0000  Tot=             12.1543
 Quadrupole moment (field-independent basis, Debye-Ang):
   XX=            -55.5095   YY=            -94.6484   ZZ=            -53.3219
   XY=            -10.1374   XZ=             -0.0000   YZ=             -0.0000

 Summary of Natural Population Analysis:

                                       Natural Population
                Natural  -----------------------------------------------
    Atom  No    Charge         Core      Valence    Rydberg      Total
 -----------------------------------------------------------------------
      O    1   -0.73999      1.99966     6.63159    0.10874     8.73999
     Cl    2    0.16912      9.99982     6.68927    0.14179    16.83088
      I    3   -0.90154     45.98349     7.75117    0.16688    53.90154
      H    4    0.47241      0.00000     0.49775    0.02984     0.52759
 =======================================================================
   * Total *   -1.00000     57.98297    21.56978    0.44725    80.00000

 Normal termination of Gaussian 09 at Tue Oct 12 15:35:10 2021.
