 Gaussian 09, Revision E.01,
 Gaussian 09:  ES64L-G09RevE.01 30-Nov-2015

 --------------------------------------------------------
 #p pop=NBO SP NoSymm mp2/gen Pseudo=read density=current
 --------------------------------------------------------

 -----
 title
 -----
 Symbolic Z-matrix:
 Charge = -1 Multiplicity = 1

                          Input orientation:
 ---------------------------------------------------------------------
 Center     Atomic      Atomic             Coordinates (Angstroms)
 Number     Number       Type             X           Y           Z
 ---------------------------------------------------------------------
      1          8           0        0.000000    0.000000    0.000000
      2         17           0        1.686522    0.000000    0.000000
      3         53           0       -0.758922   -3.224184    0.000000
      4          1           0       -0.320771   -1.362757    0.000000
 ---------------------------------------------------------------------

 SCF Done:  E(RHF) =  -829.635759633     A.U. after   14 cycles
 E2 =    -0.7019352593D+00 EUMP2 =    -0.83033769489240D+03

 Alpha  occ. eigenvalues -- -104.69153 -20.40927 -10.41128  -7.87837  -7.87615
 Alpha  occ. eigenvalues --   -7.87608  -7.52047  -5.34791  -5.34488  -5.34484
 Alpha  occ. eigenvalues --   -2.07617  -2.07438  -2.07434  -2.07104  -2.07104
 Alpha  occ. eigenvalues --   -1.14192  -0.83881  -0.69115  -0.43858  -0.38944
 Alpha  occ. eigenvalues --   -0.38031  -0.27613  -0.23530  -0.19703  -0.18891
 Alpha  occ. eigenvalues --   -0.18826
 Alpha virt. eigenvalues --    0.15732   0.18932   0.21237   0.22971   0.23762
 Alpha virt. eigenvalues --    0.24714   0.25163   0.29036   0.30418   0.31740
 Alpha virt. eigenvalues --    0.32225   0.32351   0.35579   0.35950   0.36842

 Mulliken charges:
               1
     1  O   -0.608074
     2  Cl  -0.007415
     3  I   -0.488513
     4  H    0.104002
 Sum of Mulliken charges =  -1.00000

 Dipole moment (field-independent basis, Debye):
    X=              0.5689    Y=              8.0125    Z=             -0.0000  Tot=              8.0327
 Quadrupole moment (field-independent basis, Debye-Ang):
   XX=            -55.9664   YY=            -80.5533   ZZ=            -52.5929
   XY=             -6.9735   XZ=              0.0000   YZ=              0.0000

 Summary of Natural Population Analysis:

                                       Natural Population
                Natural  -----------------------------------------------
    Atom  No    Charge         Core      Valence    Rydberg      Total
 -----------------------------------------------------------------------
      O    1   -0.83140      1.99984     6.71695    0.11461     8.83140
     Cl    2    0.11721      9.99975     6.72703    0.15602    16.88279
      I    3   -0.56577     45.98147     7.42906    0.15524    53.56577
      H    4    0.27997      0.00000     0.68505    0.03498     0.72003
 =======================================================================
   * Total *   -1.00000     57.98106    21.55809    0.46085    80.00000

 Normal termination of Gaussian 09 at Tue Oct 12 15:37:44 2021.
