 Gaussian 09, Revision E.01,
 Gaussian 09:  ES64L-G09RevE.01 30-Nov-2015

 --------------------------------------------------------
 #p pop=NBO SP NoSymm mp2/gen Pseudo=read density=current
 --------------------------------------------------------

 -----
 title
 -----
 Symbolic Z-matrix:
 Charge = -1 Multiplicity = 1

                          Input orientation:
 ---------------------------------------------------------------------
 Center     Atomic      Atomic             Coordinates (Angstroms)
 Number     Number       Type             X           Y           Z
 ---------------------------------------------------------------------
      1          8           0        0.000000    0.000000    0.000000
      2         17           0        1.686522    0.000000    0.000000
      3         53           0       -0.758922   -3.224184    0.000000
      4          1           0       -0.194754   -0.827388    0.000000
 ---------------------------------------------------------------------

 SCF Done:  E(RHF) =  -829.671619590     A.U. after   13 cycles
 E2 =    -0.6733435694D+00 EUMP2 =    -0.83034496315894D+03

 Alpha  occ. eigenvalues -- -104.75318 -20.47706 -10.47249  -7.93968  -7.93687
 Alpha  occ. eigenvalues --   -7.93675  -7.47087  -5.29647  -5.29617  -5.29614
 Alpha  occ. eigenvalues --   -2.02397  -2.02375  -2.02373  -2.02341  -2.02341
 Alpha  occ. eigenvalues --   -1.29170  -0.93162  -0.63764  -0.59462  -0.46948
 Alpha  occ. eigenvalues --   -0.46147  -0.33199  -0.30443  -0.15487  -0.14655
 Alpha  occ. eigenvalues --   -0.14650
 Alpha virt. eigenvalues --    0.14990   0.17270   0.21617   0.22411   0.24031
 Alpha virt. eigenvalues --    0.25128   0.25402   0.26806   0.29309   0.30089
 Alpha virt. eigenvalues --    0.30223   0.31175   0.34459   0.37677   0.38059

 Mulliken charges:
               1
     1  O   -0.362884
     2  Cl   0.075897
     3  I   -0.900684
     4  H    0.187671
 Sum of Mulliken charges =  -1.00000

 Dipole moment (field-independent basis, Debye):
    X=              2.5985    Y=             12.4201    Z=             -0.0000  Tot=             12.6890
 Quadrupole moment (field-independent basis, Debye-Ang):
   XX=            -55.3286   YY=            -96.3437   ZZ=            -53.3527
   XY=            -10.5181   XZ=              0.0000   YZ=              0.0000

 Summary of Natural Population Analysis:

                                       Natural Population
                Natural  -----------------------------------------------
    Atom  No    Charge         Core      Valence    Rydberg      Total
 -----------------------------------------------------------------------
      O    1   -0.68578      1.99955     6.58033    0.10590     8.68578
     Cl    2    0.17378      9.99986     6.68529    0.14107    16.82622
      I    3   -0.94260     45.98380     7.78981    0.16899    53.94260
      H    4    0.45460      0.00000     0.51615    0.02926     0.54540
 =======================================================================
   * Total *   -1.00000     57.98321    21.57157    0.44522    80.00000

 Normal termination of Gaussian 09 at Tue Oct 12 15:34:36 2021.
