 Gaussian 16, Revision B.01,
 Gaussian 16:  ES64L-G16RevB.01 20-Dec-2017

 ----------------------------------------------------
 #p pop=NBO SP NoSymm mp2/aug-cc-pvtz density=current
 ----------------------------------------------------

 -----
 title
 -----
 Symbolic Z-matrix:
 Charge = -1 Multiplicity = 1

                          Input orientation:
 ---------------------------------------------------------------------
 Center     Atomic      Atomic             Coordinates (Angstroms)
 Number     Number       Type             X           Y           Z
 ---------------------------------------------------------------------
      1          8           0        0.000000    0.000000    0.000000
      2         17           0        1.697002    0.000000    0.000000
      3         17           0       -0.633602   -2.861706    0.000000
      4          1           0       -0.189771   -0.857114    0.409358
 ---------------------------------------------------------------------

 SCF Done:  E(RHF) =  -994.518198151     A.U. after   13 cycles
 E2 =    -0.6645577562D+00 EUMP2 =    -0.99518275590710D+03

 Alpha  occ. eigenvalues -- -104.73254-104.53639 -20.46500 -10.45199 -10.26103
 Alpha  occ. eigenvalues --   -7.91913  -7.91650  -7.91638  -7.72715  -7.72704
 Alpha  occ. eigenvalues --   -7.72703  -1.23683  -0.90046  -0.77265  -0.54890
 Alpha  occ. eigenvalues --   -0.44376  -0.43444  -0.31127  -0.28458  -0.19079
 Alpha  occ. eigenvalues --   -0.18412  -0.18343
 Alpha virt. eigenvalues --    0.15824   0.18201   0.22480   0.23247   0.26138
 Alpha virt. eigenvalues --    0.27465   0.27932   0.28560   0.30655   0.31522
 Alpha virt. eigenvalues --    0.33886   0.34608   0.40543   0.42459   0.46237

 Mulliken charges:
               1
     1  O   -0.414849
     2  Cl   0.058165
     3  Cl  -0.889210
     4  H    0.245893
 Sum of Mulliken charges =  -1.00000

 Dipole moment (field-independent basis, Debye):
    X=              1.6930    Y=             10.4820    Z=              0.3513  Tot=             10.6237
 Quadrupole moment (field-independent basis, Debye-Ang):
   XX=            -38.6262   YY=            -70.0568   ZZ=            -36.4226
   XY=             -7.8084   XZ=             -0.1926   YZ=             -0.2112

 Summary of Natural Population Analysis:

                                       Natural Population
                Natural  -----------------------------------------------
    Atom  No    Charge         Core      Valence    Rydberg      Total
 -----------------------------------------------------------------------
      O    1   -0.72631      1.99967     6.61821    0.10842     8.72631
     Cl    2    0.15511      9.99984     6.70208    0.14297    16.84489
     Cl    3   -0.92103     10.00007     7.77198    0.14898    17.92103
      H    4    0.49223      0.00000     0.48244    0.02533     0.50777
 =======================================================================
   * Total *   -1.00000     21.99959    21.57472    0.42569    44.00000

 Normal termination of Gaussian 16 at Fri Nov  5 15:24:57 2021.
