 Gaussian 16, Revision B.01,
 Gaussian 16:  ES64L-G16RevB.01 20-Dec-2017

 ----------------------------------------------------
 #p pop=NBO SP NoSymm mp2/aug-cc-pvtz density=current
 ----------------------------------------------------

 -----
 title
 -----
 Symbolic Z-matrix:
 Charge = -1 Multiplicity = 1

                          Input orientation:
 ---------------------------------------------------------------------
 Center     Atomic      Atomic             Coordinates (Angstroms)
 Number     Number       Type             X           Y           Z
 ---------------------------------------------------------------------
      1          8           0        0.000000    0.000000    0.000000
      2         17           0        1.697002    0.000000    0.000000
      3         17           0       -0.633602   -2.861706    0.000000
      4          1           0       -0.171522   -0.774689    0.555580
 ---------------------------------------------------------------------

 SCF Done:  E(RHF) =  -994.512759458     A.U. after   13 cycles
 E2 =    -0.6641393119D+00 EUMP2 =    -0.99517689876960D+03

 Alpha  occ. eigenvalues -- -104.73517-104.53095 -20.47106 -10.45467 -10.25548
 Alpha  occ. eigenvalues --   -7.92182  -7.91916  -7.91902  -7.72160  -7.72150
 Alpha  occ. eigenvalues --   -7.72148  -1.24181  -0.90296  -0.76578  -0.55246
 Alpha  occ. eigenvalues --   -0.44781  -0.43823  -0.31408  -0.28765  -0.18372
 Alpha  occ. eigenvalues --   -0.17851  -0.17741
 Alpha virt. eigenvalues --    0.15610   0.18051   0.22373   0.23198   0.26286
 Alpha virt. eigenvalues --    0.27511   0.27892   0.28571   0.30142   0.31735
 Alpha virt. eigenvalues --    0.33539   0.34731   0.40915   0.41405   0.46165

 Mulliken charges:
               1
     1  O   -0.388231
     2  Cl   0.064957
     3  Cl  -0.908160
     4  H    0.231435
 Sum of Mulliken charges =  -1.00000

 Dipole moment (field-independent basis, Debye):
    X=              1.8101    Y=             10.8503    Z=              0.5142  Tot=             11.0122
 Quadrupole moment (field-independent basis, Debye-Ang):
   XX=            -38.7028   YY=            -71.3906   ZZ=            -36.1696
   XY=             -8.1166   XZ=             -0.2625   YZ=             -0.2837

 Summary of Natural Population Analysis:

                                       Natural Population
                Natural  -----------------------------------------------
    Atom  No    Charge         Core      Valence    Rydberg      Total
 -----------------------------------------------------------------------
      O    1   -0.71076      1.99969     6.60237    0.10870     8.71076
     Cl    2    0.15681      9.99984     6.70019    0.14316    16.84319
     Cl    3   -0.94295     10.00008     7.79177    0.15110    17.94295
      H    4    0.49691      0.00000     0.48005    0.02305     0.50309
 =======================================================================
   * Total *   -1.00000     21.99961    21.57438    0.42601    44.00000

 Normal termination of Gaussian 16 at Fri Nov  5 15:25:28 2021.
