 Gaussian 16, Revision B.01,
 Gaussian 16:  ES64L-G16RevB.01 20-Dec-2017

 ----------------------------------------------------
 #p pop=NBO SP NoSymm mp2/aug-cc-pvtz density=current
 ----------------------------------------------------

 -----
 title
 -----
 Symbolic Z-matrix:
 Charge = -1 Multiplicity = 1

                          Input orientation:
 ---------------------------------------------------------------------
 Center     Atomic      Atomic             Coordinates (Angstroms)
 Number     Number       Type             X           Y           Z
 ---------------------------------------------------------------------
      1          8           0        0.000000    0.000000    0.000000
      2         17           0        1.697002    0.000000    0.000000
      3         17           0       -0.633602   -2.861706    0.000000
      4          1           0       -0.134593   -0.607897    0.742009
 ---------------------------------------------------------------------

 SCF Done:  E(RHF) =  -994.503611163     A.U. after   13 cycles
 E2 =    -0.6636774711D+00 EUMP2 =    -0.99516728863372D+03

 Alpha  occ. eigenvalues -- -104.73902-104.52217 -20.48019 -10.45862 -10.24659
 Alpha  occ. eigenvalues --   -7.92578  -7.92309  -7.92292  -7.71268  -7.71260
 Alpha  occ. eigenvalues --   -7.71258  -1.24976  -0.90657  -0.75531  -0.55823
 Alpha  occ. eigenvalues --   -0.45385  -0.44391  -0.31854  -0.29206  -0.17278
 Alpha  occ. eigenvalues --   -0.16959  -0.16792
 Alpha virt. eigenvalues --    0.15191   0.17813   0.22178   0.23197   0.26479
 Alpha virt. eigenvalues --    0.27465   0.27679   0.28832   0.29786   0.31680
 Alpha virt. eigenvalues --    0.32499   0.35134   0.40136   0.41515   0.45677

 Mulliken charges:
               1
     1  O   -0.366029
     2  Cl   0.072822
     3  Cl  -0.939095
     4  H    0.232302
 Sum of Mulliken charges =  -1.00000

 Dipole moment (field-independent basis, Debye):
    X=              1.9949    Y=             11.4703    Z=              0.7705  Tot=             11.6680
 Quadrupole moment (field-independent basis, Debye-Ang):
   XX=            -38.8361   YY=            -73.5083   ZZ=            -35.6977
   XY=             -8.6171   XZ=             -0.3426   YZ=             -0.3078

 Summary of Natural Population Analysis:

                                       Natural Population
                Natural  -----------------------------------------------
    Atom  No    Charge         Core      Valence    Rydberg      Total
 -----------------------------------------------------------------------
      O    1   -0.68386      1.99970     6.57449    0.10966     8.68386
     Cl    2    0.15861      9.99985     6.69784    0.14370    16.84139
     Cl    3   -0.96916     10.00008     7.81465    0.15443    17.96916
      H    4    0.49440      0.00000     0.48650    0.01910     0.50560
 =======================================================================
   * Total *   -1.00000     21.99964    21.57347    0.42689    44.00000

 Normal termination of Gaussian 16 at Fri Nov  5 15:26:16 2021.
