 Gaussian 16, Revision B.01,
 Gaussian 16:  ES64L-G16RevB.01 20-Dec-2017

 ----------------------------------------------------
 #p pop=NBO SP NoSymm mp2/aug-cc-pvtz density=current
 ----------------------------------------------------

 -----
 title
 -----
 Symbolic Z-matrix:
 Charge = -1 Multiplicity = 1

                          Input orientation:
 ---------------------------------------------------------------------
 Center     Atomic      Atomic             Coordinates (Angstroms)
 Number     Number       Type             X           Y           Z
 ---------------------------------------------------------------------
      1          8           0        0.000000    0.000000    0.000000
      2         17           0        1.697002    0.000000    0.000000
      3         17           0       -0.633602   -2.861706    0.000000
      4          1           0       -0.160402   -0.724464    0.622619
 ---------------------------------------------------------------------

 SCF Done:  E(RHF) =  -994.509768714     A.U. after   13 cycles
 E2 =    -0.6639490989D+00 EUMP2 =    -0.99517371781291D+03

 Alpha  occ. eigenvalues -- -104.73651-104.52802 -20.47420 -10.45604 -10.25251
 Alpha  occ. eigenvalues --   -7.92319  -7.92052  -7.92037  -7.71861  -7.71852
 Alpha  occ. eigenvalues --   -7.71850  -1.24446  -0.90423  -0.76221  -0.55438
 Alpha  occ. eigenvalues --   -0.44990  -0.44019  -0.31559  -0.28920  -0.18000
 Alpha  occ. eigenvalues --   -0.17551  -0.17422
 Alpha virt. eigenvalues --    0.15481   0.17971   0.22309   0.23190   0.26358
 Alpha virt. eigenvalues --    0.27537   0.27792   0.28642   0.29978   0.31767
 Alpha virt. eigenvalues --    0.33205   0.34886   0.40762   0.41274   0.46051

 Mulliken charges:
               1
     1  O   -0.378720
     2  Cl   0.068187
     3  Cl  -0.918462
     4  H    0.228995
 Sum of Mulliken charges =  -1.00000

 Dipole moment (field-independent basis, Debye):
    X=              1.8723    Y=             11.0528    Z=              0.5994  Tot=             11.2263
 Quadrupole moment (field-independent basis, Debye-Ang):
   XX=            -38.7458   YY=            -72.1037   ZZ=            -36.0206
   XY=             -8.2832   XZ=             -0.2933   YZ=             -0.3068

 Summary of Natural Population Analysis:

                                       Natural Population
                Natural  -----------------------------------------------
    Atom  No    Charge         Core      Valence    Rydberg      Total
 -----------------------------------------------------------------------
      O    1   -0.70187      1.99969     6.59325    0.10892     8.70187
     Cl    2    0.15755      9.99985     6.69929    0.14331    16.84245
     Cl    3   -0.95306     10.00008     7.80073    0.15224    17.95306
      H    4    0.49737      0.00000     0.48087    0.02175     0.50263
 =======================================================================
   * Total *   -1.00000     21.99962    21.57414    0.42623    44.00000

 Normal termination of Gaussian 16 at Fri Nov  5 15:25:43 2021.
