 Gaussian 16, Revision B.01,
 Gaussian 16:  ES64L-G16RevB.01 20-Dec-2017

 ----------------------------------------------------
 #p pop=NBO SP NoSymm mp2/aug-cc-pvtz density=current
 ----------------------------------------------------

 -----
 title
 -----
 Symbolic Z-matrix:
 Charge = -1 Multiplicity = 1

                          Input orientation:
 ---------------------------------------------------------------------
 Center     Atomic      Atomic             Coordinates (Angstroms)
 Number     Number       Type             X           Y           Z
 ---------------------------------------------------------------------
      1          8           0        0.000000    0.000000    0.000000
      2         17           0        1.697002    0.000000    0.000000
      3         17           0       -0.633602   -2.861706    0.000000
      4          1           0       -0.202255   -0.913496    0.250698
 ---------------------------------------------------------------------

 SCF Done:  E(RHF) =  -994.522339340     A.U. after   13 cycles
 E2 =    -0.6649230427D+00 EUMP2 =    -0.99518726238242D+03

 Alpha  occ. eigenvalues -- -104.73037-104.54063 -20.46009 -10.44979 -10.26535
 Alpha  occ. eigenvalues --   -7.91693  -7.91431  -7.91420  -7.73149  -7.73137
 Alpha  occ. eigenvalues --   -7.73136  -1.23289  -0.89839  -0.77822  -0.54615
 Alpha  occ. eigenvalues --   -0.44043  -0.43136  -0.30908  -0.28199  -0.19643
 Alpha  occ. eigenvalues --   -0.18853  -0.18822
 Alpha virt. eigenvalues --    0.15963   0.18320   0.22539   0.23335   0.26020
 Alpha virt. eigenvalues --    0.27427   0.27794   0.28665   0.31147   0.31439
 Alpha virt. eigenvalues --    0.33720   0.34840   0.39800   0.43681   0.46179

 Mulliken charges:
               1
     1  O   -0.443813
     2  Cl   0.052610
     3  Cl  -0.874264
     4  H    0.265467
 Sum of Mulliken charges =  -1.00000

 Dipole moment (field-independent basis, Debye):
    X=              1.6006    Y=             10.2004    Z=              0.2023  Tot=             10.3272
 Quadrupole moment (field-independent basis, Debye-Ang):
   XX=            -38.5691   YY=            -69.0126   ZZ=            -36.5989
   XY=             -7.5693   XZ=             -0.1168   YZ=             -0.1254

 Summary of Natural Population Analysis:

                                       Natural Population
                Natural  -----------------------------------------------
    Atom  No    Charge         Core      Valence    Rydberg      Total
 -----------------------------------------------------------------------
      O    1   -0.73697      1.99966     6.62912    0.10818     8.73697
     Cl    2    0.15353      9.99984     6.70371    0.14292    16.84647
     Cl    3   -0.90163     10.00006     7.75419    0.14737    17.90163
      H    4    0.48506      0.00000     0.48798    0.02696     0.51494
 =======================================================================
   * Total *   -1.00000     21.99956    21.57500    0.42544    44.00000

 Normal termination of Gaussian 16 at Fri Nov  5 15:24:26 2021.
