 Gaussian 16, Revision B.01,
 Gaussian 16:  ES64L-G16RevB.01 20-Dec-2017

 ----------------------------------------------------
 #p pop=NBO SP NoSymm mp2/aug-cc-pvtz density=current
 ----------------------------------------------------

 -----
 title
 -----
 Symbolic Z-matrix:
 Charge = -1 Multiplicity = 1

                          Input orientation:
 ---------------------------------------------------------------------
 Center     Atomic      Atomic             Coordinates (Angstroms)
 Number     Number       Type             X           Y           Z
 ---------------------------------------------------------------------
      1          8           0        0.000000    0.000000    0.000000
      2         17           0        1.697002    0.000000    0.000000
      3         17           0       -0.633602   -2.861706    0.000000
      4          1           0       -0.148061   -0.668725    0.684920
 ---------------------------------------------------------------------

 SCF Done:  E(RHF) =  -994.506699459     A.U. after   13 cycles
 E2 =    -0.6637913237D+00 EUMP2 =    -0.99517049078253D+03

 Alpha  occ. eigenvalues -- -104.73780-104.52507 -20.47726 -10.45737 -10.24951
 Alpha  occ. eigenvalues --   -7.92452  -7.92184  -7.92168  -7.71562  -7.71553
 Alpha  occ. eigenvalues --   -7.71551  -1.24713  -0.90544  -0.75869  -0.55632
 Alpha  occ. eigenvalues --   -0.45192  -0.44210  -0.31709  -0.29068  -0.17633
 Alpha  occ. eigenvalues --   -0.17252  -0.17103
 Alpha virt. eigenvalues --    0.15341   0.17891   0.22242   0.23191   0.26423
 Alpha virt. eigenvalues --    0.27549   0.27688   0.28733   0.29863   0.31750
 Alpha virt. eigenvalues --    0.32844   0.35025   0.40431   0.41385   0.45886

 Mulliken charges:
               1
     1  O   -0.371574
     2  Cl   0.070890
     3  Cl  -0.928898
     4  H    0.229583
 Sum of Mulliken charges =  -1.00000

 Dipole moment (field-independent basis, Debye):
    X=              1.9344    Y=             11.2608    Z=              0.6854  Tot=             11.4463
 Quadrupole moment (field-independent basis, Debye-Ang):
   XX=            -38.7907   YY=            -72.8162   ZZ=            -35.8617
   XY=             -8.4515   XZ=             -0.3203   YZ=             -0.3160

 Summary of Natural Population Analysis:

                                       Natural Population
                Natural  -----------------------------------------------
    Atom  No    Charge         Core      Valence    Rydberg      Total
 -----------------------------------------------------------------------
      O    1   -0.69278      1.99970     6.58384    0.10924     8.69278
     Cl    2    0.15817      9.99985     6.69849    0.14350    16.84183
     Cl    3   -0.96188     10.00008     7.80842    0.15337    17.96188
      H    4    0.49649      0.00000     0.48309    0.02042     0.50351
 =======================================================================
   * Total *   -1.00000     21.99963    21.57384    0.42653    44.00000

 Normal termination of Gaussian 16 at Fri Nov  5 15:25:59 2021.
