 Gaussian 16, Revision B.01,
 Gaussian 16:  ES64L-G16RevB.01 20-Dec-2017

 ----------------------------------------------------
 #p pop=NBO SP NoSymm mp2/aug-cc-pvtz density=current
 ----------------------------------------------------

 -----
 title
 -----
 Symbolic Z-matrix:
 Charge = -1 Multiplicity = 1

                          Input orientation:
 ---------------------------------------------------------------------
 Center     Atomic      Atomic             Coordinates (Angstroms)
 Number     Number       Type             X           Y           Z
 ---------------------------------------------------------------------
      1          8           0        0.000000    0.000000    0.000000
      2         17           0        1.697002    0.000000    0.000000
      3         17           0       -0.633602   -2.861706    0.000000
      4          1           0       -0.196762   -0.888687    0.331289
 ---------------------------------------------------------------------

 SCF Done:  E(RHF) =  -994.520473256     A.U. after   13 cycles
 E2 =    -0.6647542990D+00 EUMP2 =    -0.99518522755471D+03

 Alpha  occ. eigenvalues -- -104.73137-104.53871 -20.46234 -10.45080 -10.26339
 Alpha  occ. eigenvalues --   -7.91794  -7.91531  -7.91520  -7.72953  -7.72940
 Alpha  occ. eigenvalues --   -7.72940  -1.23468  -0.89934  -0.77567  -0.54739
 Alpha  occ. eigenvalues --   -0.44196  -0.43276  -0.31007  -0.28318  -0.19386
 Alpha  occ. eigenvalues --   -0.18653  -0.18604
 Alpha virt. eigenvalues --    0.15904   0.18266   0.22516   0.23288   0.26073
 Alpha virt. eigenvalues --    0.27445   0.27872   0.28611   0.31005   0.31357
 Alpha virt. eigenvalues --    0.33827   0.34719   0.40216   0.43079   0.46215

 Mulliken charges:
               1
     1  O   -0.429966
     2  Cl   0.055137
     3  Cl  -0.881079
     4  H    0.255908
 Sum of Mulliken charges =  -1.00000

 Dipole moment (field-independent basis, Debye):
    X=              1.6426    Y=             10.3276    Z=              0.2750  Tot=             10.4610
 Quadrupole moment (field-independent basis, Debye-Ang):
   XX=            -38.5947   YY=            -69.4863   ZZ=            -36.5212
   XY=             -7.6775   XZ=             -0.1551   YZ=             -0.1687

 Summary of Natural Population Analysis:

                                       Natural Population
                Natural  -----------------------------------------------
    Atom  No    Charge         Core      Valence    Rydberg      Total
 -----------------------------------------------------------------------
      O    1   -0.73232      1.99967     6.62436    0.10830     8.73232
     Cl    2    0.15427      9.99984     6.70296    0.14293    16.84573
     Cl    3   -0.91064     10.00007     7.76248    0.14809    17.91064
      H    4    0.48869      0.00000     0.48507    0.02624     0.51131
 =======================================================================
   * Total *   -1.00000     21.99957    21.57487    0.42556    44.00000

 Normal termination of Gaussian 16 at Fri Nov  5 15:24:41 2021.
