 Gaussian 16, Revision B.01,
 Gaussian 16:  ES64L-G16RevB.01 20-Dec-2017

 ----------------------------------------------------
 #p pop=NBO SP NoSymm mp2/aug-cc-pvtz density=current
 ----------------------------------------------------

 -----
 title
 -----
 Symbolic Z-matrix:
 Charge = -1 Multiplicity = 1

                          Input orientation:
 ---------------------------------------------------------------------
 Center     Atomic      Atomic             Coordinates (Angstroms)
 Number     Number       Type             X           Y           Z
 ---------------------------------------------------------------------
      1          8           0        0.000000    0.000000    0.000000
      2         17           0        1.697002    0.000000    0.000000
      3         17           0       -0.633602   -2.861706    0.000000
      4          1           0       -0.206208   -0.931353    0.168200
 ---------------------------------------------------------------------

 SCF Done:  E(RHF) =  -994.523725422     A.U. after   13 cycles
 E2 =    -0.6650523548D+00 EUMP2 =    -0.99518877777646D+03

 Alpha  occ. eigenvalues -- -104.72962-104.54206 -20.45838 -10.44902 -10.26682
 Alpha  occ. eigenvalues --   -7.91615  -7.91354  -7.91344  -7.73296  -7.73284
 Alpha  occ. eigenvalues --   -7.73283  -1.23154  -0.89767  -0.78017  -0.54522
 Alpha  occ. eigenvalues --   -0.43926  -0.43029  -0.30835  -0.28107  -0.19836
 Alpha  occ. eigenvalues --   -0.19004  -0.18988
 Alpha virt. eigenvalues --    0.16002   0.18361   0.22551   0.23380   0.25981
 Alpha virt. eigenvalues --    0.27415   0.27719   0.28706   0.30989   0.31854
 Alpha virt. eigenvalues --    0.33618   0.34921   0.39348   0.44194   0.46143

 Mulliken charges:
               1
     1  O   -0.454603
     2  Cl   0.050722
     3  Cl  -0.869141
     4  H    0.273022
 Sum of Mulliken charges =  -1.00000

 Dipole moment (field-independent basis, Debye):
    X=              1.5691    Y=             10.1056    Z=              0.1329  Tot=             10.2275
 Quadrupole moment (field-independent basis, Debye-Ang):
   XX=            -38.5502   YY=            -68.6571   ZZ=            -36.6550
   XY=             -7.4883   XZ=             -0.0780   YZ=             -0.0826

 Summary of Natural Population Analysis:

                                       Natural Population
                Natural  -----------------------------------------------
    Atom  No    Charge         Core      Valence    Rydberg      Total
 -----------------------------------------------------------------------
      O    1   -0.74023      1.99966     6.63249    0.10808     8.74023
     Cl    2    0.15295      9.99983     6.70429    0.14293    16.84705
     Cl    3   -0.89465     10.00006     7.74775    0.14684    17.89465
      H    4    0.48193      0.00000     0.49059    0.02748     0.51807
 =======================================================================
   * Total *   -1.00000     21.99955    21.57512    0.42533    44.00000

 Normal termination of Gaussian 16 at Fri Nov  5 15:24:10 2021.
