 Gaussian 16, Revision B.01,
 Gaussian 16:  ES64L-G16RevB.01 20-Dec-2017

 ----------------------------------------------------
 #p pop=NBO SP NoSymm mp2/aug-cc-pvtz density=current
 ----------------------------------------------------

 -----
 title
 -----
 Symbolic Z-matrix:
 Charge = -1 Multiplicity = 1

                          Input orientation:
 ---------------------------------------------------------------------
 Center     Atomic      Atomic             Coordinates (Angstroms)
 Number     Number       Type             X           Y           Z
 ---------------------------------------------------------------------
      1          8           0        0.000000    0.000000    0.000000
      2         17           0        1.697002    0.000000    0.000000
      3         17           0       -0.633602   -2.861706    0.000000
      4          1           0       -0.209389   -0.945721    0.000000
 ---------------------------------------------------------------------

 SCF Done:  E(RHF) =  -994.524866498     A.U. after   13 cycles
 E2 =    -0.6651612368D+00 EUMP2 =    -0.99519002773479D+03

 Alpha  occ. eigenvalues -- -104.72898-104.54325 -20.45695 -10.44837 -10.26804
 Alpha  occ. eigenvalues --   -7.91551  -7.91290  -7.91281  -7.73419  -7.73406
 Alpha  occ. eigenvalues --   -7.73405  -1.23041  -0.89707  -0.78180  -0.54446
 Alpha  occ. eigenvalues --   -0.43828  -0.42939  -0.30775  -0.28029  -0.19997
 Alpha  occ. eigenvalues --   -0.19130  -0.19126
 Alpha virt. eigenvalues --    0.16029   0.18396   0.22558   0.23424   0.25950
 Alpha virt. eigenvalues --    0.27407   0.27644   0.28735   0.30835   0.32349
 Alpha virt. eigenvalues --    0.33510   0.34957   0.38831   0.44675   0.46101

 Mulliken charges:
               1
     1  O   -0.463514
     2  Cl   0.049174
     3  Cl  -0.864939
     4  H    0.279279
 Sum of Mulliken charges =  -1.00000

 Dipole moment (field-independent basis, Debye):
    X=              1.5428    Y=             10.0272    Z=             -0.0000  Tot=             10.1452
 Quadrupole moment (field-independent basis, Debye-Ang):
   XX=            -38.5346   YY=            -68.3620   ZZ=            -36.7000
   XY=             -7.4212   XZ=             -0.0000   YZ=              0.0000

 Summary of Natural Population Analysis:

                                       Natural Population
                Natural  -----------------------------------------------
    Atom  No    Charge         Core      Valence    Rydberg      Total
 -----------------------------------------------------------------------
      O    1   -0.74278      1.99965     6.63514    0.10799     8.74278
     Cl    2    0.15244      9.99983     6.70478    0.14294    16.84756
     Cl    3   -0.88872     10.00005     7.74227    0.14640    17.88872
      H    4    0.47906      0.00000     0.49303    0.02791     0.52094
 =======================================================================
   * Total *   -1.00000     21.99954    21.57523    0.42523    44.00000

 Normal termination of Gaussian 16 at Fri Nov  5 15:23:38 2021.
