 Gaussian 16, Revision B.01,
 Gaussian 16:  ES64L-G16RevB.01 20-Dec-2017

 -------------------------------------------------
 #p opt=(z-matrix) mp2/aug-cc-pvtz density=current
 -------------------------------------------------

 -----
 title
 -----
 Symbolic Z-matrix:
 Charge = -1 Multiplicity = 1

 SCF Done:  E(RHF) =  -994.524458896     A.U. after   13 cycles
 E2 =    -0.6655293150D+00 EUMP2 =    -0.99518998821144D+03
 SCF Done:  E(RHF) =  -994.524925591     A.U. after   10 cycles
 E2 =    -0.6651010835D+00 EUMP2 =    -0.99519002667406D+03
 SCF Done:  E(RHF) =  -994.524866498     A.U. after    8 cycles
 E2 =    -0.6651612381D+00 EUMP2 =    -0.99519002773611D+03
 Optimization completed.
    -- Stationary point found.

                         Standard orientation:
 ---------------------------------------------------------------------
 Center     Atomic      Atomic             Coordinates (Angstroms)
 Number     Number       Type             X           Y           Z
 ---------------------------------------------------------------------
      1          8           0       -0.963500    0.758022   -0.000000
      2         17           0       -1.498594   -0.852409   -0.000000
      3         17           0        1.952006    0.456956    0.000000
      4          1           0       -0.000000    0.658527    0.000000
 ---------------------------------------------------------------------

 The electronic state is 1-A'.
 Alpha  occ. eigenvalues -- -104.72898-104.54325 -20.45695 -10.44837 -10.26804
 Alpha  occ. eigenvalues --   -7.91551  -7.91290  -7.91281  -7.73419  -7.73406
 Alpha  occ. eigenvalues --   -7.73405  -1.23041  -0.89707  -0.78180  -0.54446
 Alpha  occ. eigenvalues --   -0.43828  -0.42939  -0.30775  -0.28029  -0.19997
 Alpha  occ. eigenvalues --   -0.19130  -0.19126
 Alpha virt. eigenvalues --    0.16029   0.18396   0.22558   0.23424   0.25950
 Alpha virt. eigenvalues --    0.27407   0.27644   0.28735   0.30835   0.32349
 Alpha virt. eigenvalues --    0.33510   0.34957   0.38831   0.44675   0.46101

 Mulliken charges:
               1
     1  O   -0.463514
     2  Cl   0.049174
     3  Cl  -0.864939
     4  H    0.279279
 Sum of Mulliken charges =  -1.00000

 Dipole moment (field-independent basis, Debye):
    X=             -5.3742    Y=             -1.9433    Z=             -0.0000  Tot=              5.7148
 Quadrupole moment (field-independent basis, Debye-Ang):
   XX=            -55.0227   YY=            -37.2451   ZZ=            -36.7000
   XY=             -2.7296   XZ=             -0.0000   YZ=             -0.0000

 Normal termination of Gaussian 16 at Thu Nov  4 23:35:29 2021.
