 Gaussian 16, Revision B.01,
 Gaussian 16:  ES64L-G16RevB.01 20-Dec-2017

 ----------------------------------------------------
 #p pop=NBO SP NoSymm mp2/aug-cc-pvtz density=current
 ----------------------------------------------------

 -----
 title
 -----
 Symbolic Z-matrix:
 Charge = -1 Multiplicity = 1

                          Input orientation:
 ---------------------------------------------------------------------
 Center     Atomic      Atomic             Coordinates (Angstroms)
 Number     Number       Type             X           Y           Z
 ---------------------------------------------------------------------
      1          8           0        0.000000    0.000000    0.000000
      2         17           0        1.697002    0.000000    0.000000
      3         17           0       -0.633602   -2.861706    0.000000
      4          1           0       -0.181336   -0.819018    0.484312
 ---------------------------------------------------------------------

 SCF Done:  E(RHF) =  -994.515597488     A.U. after   13 cycles
 E2 =    -0.6643475178D+00 EUMP2 =    -0.99517994500598D+03

 Alpha  occ. eigenvalues -- -104.73382-104.53377 -20.46795 -10.45330 -10.25836
 Alpha  occ. eigenvalues --   -7.92045  -7.91780  -7.91767  -7.72448  -7.72437
 Alpha  occ. eigenvalues --   -7.72436  -1.23923  -0.90168  -0.76930  -0.55061
 Alpha  occ. eigenvalues --   -0.44574  -0.43628  -0.31262  -0.28609  -0.18736
 Alpha  occ. eigenvalues --   -0.18141  -0.18052
 Alpha virt. eigenvalues --    0.15725   0.18129   0.22432   0.23217   0.26210
 Alpha virt. eigenvalues --    0.27487   0.27944   0.28540   0.30366   0.31654
 Alpha virt. eigenvalues --    0.33793   0.34611   0.40778   0.41878   0.46225

 Mulliken charges:
               1
     1  O   -0.400448
     2  Cl   0.061516
     3  Cl  -0.898322
     4  H    0.237254
 Sum of Mulliken charges =  -1.00000

 Dipole moment (field-independent basis, Debye):
    X=              1.7496    Y=             10.6582    Z=              0.4312  Tot=             10.8094
 Quadrupole moment (field-independent basis, Debye-Ang):
   XX=            -38.6625   YY=            -70.7001   ZZ=            -36.3046
   XY=             -7.9566   XZ=             -0.2286   YZ=             -0.2506

 Summary of Natural Population Analysis:

                                       Natural Population
                Natural  -----------------------------------------------
    Atom  No    Charge         Core      Valence    Rydberg      Total
 -----------------------------------------------------------------------
      O    1   -0.71903      1.99968     6.61081    0.10854     8.71903
     Cl    2    0.15597      9.99984     6.70114    0.14304    16.84403
     Cl    3   -0.93205     10.00008     7.78198    0.14999    17.93205
      H    4    0.49511      0.00000     0.48063    0.02425     0.50489
 =======================================================================
   * Total *   -1.00000     21.99960    21.57456    0.42583    44.00000

 Normal termination of Gaussian 16 at Fri Nov  5 15:25:13 2021.
