 Gaussian 16, Revision B.01,
 Gaussian 16:  ES64L-G16RevB.01 20-Dec-2017

 ----------------------------------------------------
 #p pop=NBO SP NoSymm mp2/aug-cc-pvtz density=current
 ----------------------------------------------------

 -----
 title
 -----
 Symbolic Z-matrix:
 Charge = -1 Multiplicity = 1

                          Input orientation:
 ---------------------------------------------------------------------
 Center     Atomic      Atomic             Coordinates (Angstroms)
 Number     Number       Type             X           Y           Z
 ---------------------------------------------------------------------
      1          8           0        0.000000    0.000000    0.000000
      2         17           0        1.697002    0.000000    0.000000
      3         17           0       -0.633602   -2.861706    0.000000
      4          1           0       -0.208593   -0.942122    0.084421
 ---------------------------------------------------------------------

 SCF Done:  E(RHF) =  -994.524578543     A.U. after   13 cycles
 E2 =    -0.6651335544D+00 EUMP2 =    -0.99518971209751D+03

 Alpha  occ. eigenvalues -- -104.72914-104.54295 -20.45732 -10.44854 -10.26773
 Alpha  occ. eigenvalues --   -7.91567  -7.91306  -7.91297  -7.73388  -7.73375
 Alpha  occ. eigenvalues --   -7.73374  -1.23070  -0.89722  -0.78138  -0.54465
 Alpha  occ. eigenvalues --   -0.43853  -0.42962  -0.30790  -0.28048  -0.19957
 Alpha  occ. eigenvalues --   -0.19098  -0.19091
 Alpha virt. eigenvalues --    0.16023   0.18387   0.22556   0.23412   0.25958
 Alpha virt. eigenvalues --    0.27408   0.27665   0.28728   0.30876   0.32205
 Alpha virt. eigenvalues --    0.33541   0.34953   0.38978   0.44547   0.46114

 Mulliken charges:
               1
     1  O   -0.461280
     2  Cl   0.049563
     3  Cl  -0.865994
     4  H    0.277710
 Sum of Mulliken charges =  -1.00000

 Dipole moment (field-independent basis, Debye):
    X=              1.5494    Y=             10.0470    Z=              0.0658  Tot=             10.1660
 Quadrupole moment (field-independent basis, Debye-Ang):
   XX=            -38.5385   YY=            -68.4367   ZZ=            -36.6887
   XY=             -7.4381   XZ=             -0.0390   YZ=             -0.0409

 Summary of Natural Population Analysis:

                                       Natural Population
                Natural  -----------------------------------------------
    Atom  No    Charge         Core      Valence    Rydberg      Total
 -----------------------------------------------------------------------
      O    1   -0.74215      1.99965     6.63448    0.10801     8.74215
     Cl    2    0.15257      9.99983     6.70466    0.14294    16.84743
     Cl    3   -0.89023     10.00005     7.74367    0.14651    17.89023
      H    4    0.47981      0.00000     0.49239    0.02780     0.52019
 =======================================================================
   * Total *   -1.00000     21.99954    21.57520    0.42526    44.00000

 Normal termination of Gaussian 16 at Fri Nov  5 15:23:55 2021.
