 Gaussian 16, Revision B.01,
 Gaussian 16:  ES64L-G16RevB.01 20-Dec-2017

 -------------------------------------------------
 #p opt=(z-matrix) mp2/aug-cc-pvtz density=current
 -------------------------------------------------

 -----
 title
 -----
 Symbolic Z-matrix:
 Charge =  0 Multiplicity = 1

 SCF Done:  E(RHF) =  -75.7372600354     A.U. after   10 cycles
 E2 =    -0.2561016448D+00 EUMP2 =    -0.75993361680167D+02
 Optimization completed.
    -- Stationary point found.
 SCF Done:  E(RHF) =  -75.8586425666     A.U. after    9 cycles
 E2 =    -0.2574659178D+00 EUMP2 =    -0.76116108484379D+02
 Optimization completed.
 SCF Done:  E(RHF) =  -75.9407492105     A.U. after    9 cycles
 E2 =    -0.2590034881D+00 EUMP2 =    -0.76199752698619D+02
 SCF Done:  E(RHF) =  -75.9949405549     A.U. after    9 cycles
 E2 =    -0.2606770108D+00 EUMP2 =    -0.76255617565722D+02
 SCF Done:  E(RHF) =  -76.0291508668     A.U. after    9 cycles
 E2 =    -0.2624600663D+00 EUMP2 =    -0.76291610933137D+02
 SCF Done:  E(RHF) =  -76.0489997687     A.U. after    9 cycles
 E2 =    -0.2643311964D+00 EUMP2 =    -0.76313330965132D+02
 SCF Done:  E(RHF) =  -76.0585153766     A.U. after    9 cycles
 E2 =    -0.2662694504D+00 EUMP2 =    -0.76324784826935D+02
 SCF Done:  E(RHF) =  -76.0606106123     A.U. after    9 cycles
 E2 =    -0.2682532378D+00 EUMP2 =    -0.76328863850195D+02
 SCF Done:  E(RHF) =  -76.0574042137     A.U. after    9 cycles
 E2 =    -0.2702623672D+00 EUMP2 =    -0.76327666580936D+02
 SCF Done:  E(RHF) =  -76.0504437738     A.U. after    9 cycles
 E2 =    -0.2722812005D+00 EUMP2 =    -0.76322724974268D+02
 E2 =    -0.2743003900D+00 EUMP2 =    -0.76315165027038D+02
 E2 =    -0.2763164181D+00 EUMP2 =    -0.76305820244307D+02
 E2 =    -0.2783299297D+00 EUMP2 =    -0.76295310998874D+02
 E2 =    -0.2803440359D+00 EUMP2 =    -0.76284100076329D+02
 E2 =    -0.2823630504D+00 EUMP2 =    -0.76272532075970D+02
 E2 =    -0.2843917620D+00 EUMP2 =    -0.76260862122920D+02
 E2 =    -0.2864349910D+00 EUMP2 =    -0.76249277309003D+02
 E2 =    -0.2884974018D+00 EUMP2 =    -0.76237913169818D+02
 E2 =    -0.2905834574D+00 EUMP2 =    -0.76226866490160D+02
 SCF Done:  E(RHF) =  -75.9235077762     A.U. after   10 cycles
 E2 =    -0.2926974543D+00 EUMP2 =    -0.76216205230544D+02
 SCF Done:  E(RHF) =  -75.9111325081     A.U. after   10 cycles
 E2 =    -0.2948435892D+00 EUMP2 =    -0.76205976097233D+02
 SCF Done:  E(RHF) =  -75.8991841587     A.U. after   10 cycles
 E2 =    -0.2970260210D+00 EUMP2 =    -0.76196210179680D+02
 SCF Done:  E(RHF) =  -75.8876781405     A.U. after   10 cycles
 E2 =    -0.2992489082D+00 EUMP2 =    -0.76186927048686D+02
 SCF Done:  E(RHF) =  -75.8766212741     A.U. after   10 cycles
 E2 =    -0.3015164086D+00 EUMP2 =    -0.76178137682697D+02
 SCF Done:  E(RHF) =  -75.8660139060     A.U. after   10 cycles
 E2 =    -0.3038326393D+00 EUMP2 =    -0.76169846545312D+02
 SCF Done:  E(RHF) =  -75.8558514716     A.U. after   10 cycles
 E2 =    -0.3062016052D+00 EUMP2 =    -0.76162053076837D+02
 SCF Done:  E(RHF) =  -75.8461256887     A.U. after   10 cycles
 E2 =    -0.3086271097D+00 EUMP2 =    -0.76154752798367D+02
 SCF Done:  E(RHF) =  -75.8368255039     A.U. after   10 cycles
 E2 =    -0.3111126639D+00 EUMP2 =    -0.76147938167806D+02
    -- Stationary point found.
 SCF Done:  E(RHF) =  -75.8279378668     A.U. after   10 cycles
 E2 =    -0.3136614114D+00 EUMP2 =    -0.76141599278182D+02
 Optimization completed.
    -- Stationary point found.

                         Standard orientation:
 ---------------------------------------------------------------------
 Center     Atomic      Atomic             Coordinates (Angstroms)
 Number     Number       Type             X           Y           Z
 ---------------------------------------------------------------------
      1          8           0       -0.000000    0.199671   -0.000000
      2          1           0        0.933862   -0.028453    0.000000
      3          1           0       -0.933862   -1.568917    0.000000
 ---------------------------------------------------------------------

 The electronic state is 1-A'.
 Alpha  occ. eigenvalues --  -20.61657  -1.28775  -0.63814  -0.51175  -0.42907
 Alpha virt. eigenvalues --   -0.04917   0.04409   0.06399   0.14543   0.16498
 Alpha virt. eigenvalues --    0.18653   0.20980   0.23359   0.24680   0.28974
 Alpha virt. eigenvalues --    0.29820   0.31650   0.34777   0.45459   0.55567

 Mulliken charges:
               1
     1  O   -0.480362
     2  H    0.223603
     3  H    0.256759
 Sum of Mulliken charges =  -0.00000

 Dipole moment (field-independent basis, Debye):
    X=              0.2968    Y=             -2.2441    Z=              0.0000  Tot=              2.2636
 Quadrupole moment (field-independent basis, Debye-Ang):
   XX=             -4.6791   YY=             -4.2529   ZZ=             -8.6853
   XY=              2.3346   XZ=             -0.0000   YZ=              0.0000

 Normal termination of Gaussian 16 at Tue Nov 16 16:12:40 2021.
