 Gaussian 16, Revision B.01,
 Gaussian 16:  ES64L-G16RevB.01 20-Dec-2017

 -------------------------------------------------
 #p opt=(z-matrix) mp2/aug-cc-pvtz density=current
 -------------------------------------------------

 -----
 title
 -----
 Symbolic Z-matrix:
 Charge =  0 Multiplicity = 1

 SCF Done:  E(RHF) =  -76.0545225524     A.U. after   10 cycles
 E2 =    -0.2719036038D+00 EUMP2 =    -0.76326426156126D+02
 SCF Done:  E(RHF) =  -76.0599712465     A.U. after    9 cycles
 E2 =    -0.2689603303D+00 EUMP2 =    -0.76328931576893D+02
 SCF Done:  E(RHF) =  -76.0602405369     A.U. after    8 cycles
 E2 =    -0.2687512909D+00 EUMP2 =    -0.76328991827822D+02
 SCF Done:  E(RHF) =  -76.0602857411     A.U. after    7 cycles
 E2 =    -0.2687065799D+00 EUMP2 =    -0.76328992320958D+02
 Optimization completed.
    -- Stationary point found.

                         Standard orientation:
 ---------------------------------------------------------------------
 Center     Atomic      Atomic             Coordinates (Angstroms)
 Number     Number       Type             X           Y           Z
 ---------------------------------------------------------------------
      1          8           0        0.000000    0.000000    0.118227
      2          1           0       -0.000000    0.758088   -0.472908
      3          1           0       -0.000000   -0.758088   -0.472908
 ---------------------------------------------------------------------

 The electronic state is 1-A1.
 Alpha  occ. eigenvalues --  -20.56809  -1.35179  -0.71482  -0.58496  -0.51015
 Alpha virt. eigenvalues --    0.02937   0.04769   0.13589   0.15878   0.17516
 Alpha virt. eigenvalues --    0.18308   0.22712   0.24492   0.26539   0.30000
 Alpha virt. eigenvalues --    0.31013   0.36578   0.43733   0.46603   0.59918

 Mulliken charges:
               1
     1  O   -0.429520
     2  H    0.214760
     3  H    0.214760
 Sum of Mulliken charges =  -0.00000

 Dipole moment (field-independent basis, Debye):
    X=             -0.0000    Y=             -0.0000    Z=             -1.8594  Tot=              1.8594
 Quadrupole moment (field-independent basis, Debye-Ang):
   XX=             -7.8535   YY=             -4.4599   ZZ=             -6.4745
   XY=              0.0000   XZ=              0.0000   YZ=              0.0000

 Normal termination of Gaussian 16 at Tue Nov 16 16:04:34 2021.
