 Gaussian 16, Revision B.01,
 Gaussian 16:  ES64L-G16RevB.01 20-Dec-2017

 --------------------------------------------------------
 #p pop=NBO SP NoSymm mp2/gen Pseudo=read density=current
 --------------------------------------------------------

 -----
 title
 -----
 Symbolic Z-matrix:
 Charge = -1 Multiplicity = 1

                          Input orientation:
 ---------------------------------------------------------------------
 Center     Atomic      Atomic             Coordinates (Angstroms)
 Number     Number       Type             X           Y           Z
 ---------------------------------------------------------------------
      1          8           0        0.000000    0.000000    0.000000
      2         53           0        3.312298    0.000000    0.000000
      3         17           0       -0.386419    1.641657    0.000000
      4          1           0        0.902438    0.000000    0.420814
 ---------------------------------------------------------------------

 SCF Done:  E(RHF) =  -829.682124553     A.U. after   13 cycles
 E2 =    -0.6807939220D+00 EUMP2 =    -0.83036291847484D+03

 Alpha  occ. eigenvalues -- -104.74547 -20.48324 -10.46499  -7.93217  -7.92943
 Alpha  occ. eigenvalues --   -7.92931  -7.47357  -5.29938  -5.29877  -5.29870
 Alpha  occ. eigenvalues --   -2.02688  -2.02659  -2.02654  -2.02585  -2.02585
 Alpha  occ. eigenvalues --   -1.25090  -0.91127  -0.63780  -0.55759  -0.45993
 Alpha  occ. eigenvalues --   -0.45120  -0.32231  -0.29634  -0.15671  -0.14867
 Alpha  occ. eigenvalues --   -0.14820
 Alpha virt. eigenvalues --    0.15030   0.17471   0.21553   0.22391   0.24066
 Alpha virt. eigenvalues --    0.25105   0.25332   0.27290   0.28440   0.29673
 Alpha virt. eigenvalues --    0.30995   0.32203   0.34492   0.37093   0.37988

 Mulliken charges:
               1
     1  O   -0.435256
     2  I   -0.865886
     3  Cl   0.064565
     4  H    0.236577
 Sum of Mulliken charges =  -1.00000

 Dipole moment (field-independent basis, Debye):
    X=            -12.3389    Y=             -0.4823    Z=              0.2731  Tot=             12.3513
 Quadrupole moment (field-independent basis, Debye-Ang):
   XX=            -98.1996   YY=            -53.2316   ZZ=            -53.0799
   XY=              0.3919   XZ=             -0.0354   YZ=             -0.1298

 Summary of Natural Population Analysis:

                                       Natural Population
                Natural  -----------------------------------------------
    Atom  No    Charge         Core      Valence    Rydberg      Total
 -----------------------------------------------------------------------
      O    1   -0.74104      1.99971     6.63131    0.11002     8.74104
      I    2   -0.91132     45.98364     7.75897    0.16872    53.91132
     Cl    3    0.16768      9.99982     6.68988    0.14262    16.83232
      H    4    0.48468      0.00000     0.48854    0.02678     0.51532
 =======================================================================
   * Total *   -1.00000     57.98317    21.56870    0.44814    80.00000

 Normal termination of Gaussian 16 at Tue Sep 28 09:16:46 2021.
