 Gaussian 16, Revision B.01,
 Gaussian 16:  ES64L-G16RevB.01 20-Dec-2017

 --------------------------------------------------------
 #p pop=NBO SP NoSymm mp2/gen Pseudo=read density=current
 --------------------------------------------------------

 -----
 title
 -----
 Symbolic Z-matrix:
 Charge = -1 Multiplicity = 1

                          Input orientation:
 ---------------------------------------------------------------------
 Center     Atomic      Atomic             Coordinates (Angstroms)
 Number     Number       Type             X           Y           Z
 ---------------------------------------------------------------------
      1          8           0        0.000000    0.000000    0.000000
      2         53           0        3.312298    0.000000    0.000000
      3         17           0       -0.386419    1.641657    0.000000
      4          1           0        1.008050    0.000000    0.000000
 ---------------------------------------------------------------------

 SCF Done:  E(RHF) =  -829.685584138     A.U. after   13 cycles
 E2 =    -0.6828620770D+00 EUMP2 =    -0.83036844621461D+03

 Alpha  occ. eigenvalues -- -104.74105 -20.47533 -10.46051  -7.92768  -7.92498
 Alpha  occ. eigenvalues --   -7.92487  -7.47884  -5.30468  -5.30401  -5.30399
 Alpha  occ. eigenvalues --   -2.03229  -2.03186  -2.03184  -2.03112  -2.03112
 Alpha  occ. eigenvalues --   -1.24136  -0.90594  -0.64527  -0.54892  -0.45329
 Alpha  occ. eigenvalues --   -0.44491  -0.31737  -0.29115  -0.16418  -0.15383
 Alpha  occ. eigenvalues --   -0.15374
 Alpha virt. eigenvalues --    0.15254   0.17667   0.21537   0.22644   0.24016
 Alpha virt. eigenvalues --    0.24957   0.25235   0.27621   0.29617   0.30624
 Alpha virt. eigenvalues --    0.30762   0.31251   0.34730   0.37386   0.37874

 Mulliken charges:
               1
     1  O   -0.488498
     2  I   -0.835791
     3  Cl   0.054022
     4  H    0.270267
 Sum of Mulliken charges =  -1.00000

 Dipole moment (field-independent basis, Debye):
    X=            -11.7623    Y=             -0.5431    Z=             -0.0000  Tot=             11.7748
 Quadrupole moment (field-independent basis, Debye-Ang):
   XX=            -95.8112   YY=            -53.1853   ZZ=            -53.2791
   XY=              0.3924   XZ=             -0.0000   YZ=             -0.0000

 Summary of Natural Population Analysis:

                                       Natural Population
                Natural  -----------------------------------------------
    Atom  No    Charge         Core      Valence    Rydberg      Total
 -----------------------------------------------------------------------
      O    1   -0.76432      1.99970     6.65409    0.11052     8.76432
      I    2   -0.86952     45.98324     7.72052    0.16576    53.86952
     Cl    3    0.16510      9.99980     6.69255    0.14255    16.83490
      H    4    0.46873      0.00000     0.50122    0.03005     0.53127
 =======================================================================
   * Total *   -1.00000     57.98274    21.56838    0.44888    80.00000

 Normal termination of Gaussian 16 at Tue Sep 28 09:15:17 2021.
