 Gaussian 16, Revision B.01,
 Gaussian 16:  ES64L-G16RevB.01 20-Dec-2017

 --------------------------------------------------------
 #p pop=NBO SP NoSymm mp2/gen Pseudo=read density=current
 --------------------------------------------------------

 -----
 title
 -----
 Symbolic Z-matrix:
 Charge = -1 Multiplicity = 1

                          Input orientation:
 ---------------------------------------------------------------------
 Center     Atomic      Atomic             Coordinates (Angstroms)
 Number     Number       Type             X           Y           Z
 ---------------------------------------------------------------------
      1          8           0        0.000000    0.000000    0.000000
      2         53           0        3.312298    0.000000    0.000000
      3         17           0       -0.386419    1.641657    0.000000
      4          1           0        1.003786    0.000000    0.087820
 ---------------------------------------------------------------------

 SCF Done:  E(RHF) =  -829.685434956     A.U. after   13 cycles
 E2 =    -0.6827665739D+00 EUMP2 =    -0.83036820152956D+03

 Alpha  occ. eigenvalues -- -104.74125 -20.47569 -10.46071  -7.92787  -7.92518
 Alpha  occ. eigenvalues --   -7.92507  -7.47861  -5.30445  -5.30378  -5.30376
 Alpha  occ. eigenvalues --   -2.03206  -2.03163  -2.03161  -2.03089  -2.03089
 Alpha  occ. eigenvalues --   -1.24176  -0.90617  -0.64493  -0.54927  -0.45359
 Alpha  occ. eigenvalues --   -0.44519  -0.31758  -0.29138  -0.16384  -0.15358
 Alpha  occ. eigenvalues --   -0.15351
 Alpha virt. eigenvalues --    0.15245   0.17660   0.21538   0.22630   0.24018
 Alpha virt. eigenvalues --    0.24965   0.25239   0.27609   0.29611   0.30405
 Alpha virt. eigenvalues --    0.30750   0.31443   0.34726   0.37374   0.37881

 Mulliken charges:
               1
     1  O   -0.486030
     2  I   -0.836559
     3  Cl   0.054554
     4  H    0.268034
 Sum of Mulliken charges =  -1.00000

 Dipole moment (field-independent basis, Debye):
    X=            -11.7872    Y=             -0.5404    Z=              0.0479  Tot=             11.7996
 Quadrupole moment (field-independent basis, Debye-Ang):
   XX=            -95.9160   YY=            -53.1876   ZZ=            -53.2709
   XY=              0.3924   XZ=             -0.0167   YZ=             -0.0261

 Summary of Natural Population Analysis:

                                       Natural Population
                Natural  -----------------------------------------------
    Atom  No    Charge         Core      Valence    Rydberg      Total
 -----------------------------------------------------------------------
      O    1   -0.76342      1.99970     6.65321    0.11051     8.76342
      I    2   -0.87144     45.98326     7.72230    0.16588    53.87144
     Cl    3    0.16522      9.99980     6.69243    0.14255    16.83478
      H    4    0.46964      0.00000     0.50044    0.02991     0.53036
 =======================================================================
   * Total *   -1.00000     57.98276    21.56838    0.44886    80.00000

 Normal termination of Gaussian 16 at Tue Sep 28 09:15:34 2021.
