 Gaussian 16, Revision B.01,
 Gaussian 16:  ES64L-G16RevB.01 20-Dec-2017

 --------------------------------------------------------
 #p pop=saveNBO SP NoSymm mp2/aug-cc-pvtz density=current
 --------------------------------------------------------

 -----
 title
 -----
 Symbolic Z-matrix:
 Charge = -1 Multiplicity = 1

                          Input orientation:
 ---------------------------------------------------------------------
 Center     Atomic      Atomic             Coordinates (Angstroms)
 Number     Number       Type             X           Y           Z
 ---------------------------------------------------------------------
      1          8           0        0.000000    0.000000    0.000000
      2         17           0        2.904676    0.000000    0.000000
      3         17           0       -0.393687    1.636049    0.000000
      4          1           0        0.950555    0.000000    0.345974
 ---------------------------------------------------------------------

 SCF Done:  E(RHF) =  -994.519668918     A.U. after   13 cycles
 E2 =    -0.6668636348D+00 EUMP2 =    -0.99518653255305D+03

 Alpha  occ. eigenvalues -- -104.72672-104.54270 -20.45649 -10.44629 -10.26747
 Alpha  occ. eigenvalues --   -7.91346  -7.91084  -7.91072  -7.73361  -7.73346
 Alpha  occ. eigenvalues --   -7.73346  -1.22487  -0.89092  -0.78063  -0.53514
 Alpha  occ. eigenvalues --   -0.43791  -0.42953  -0.30394  -0.27616  -0.19765
 Alpha  occ. eigenvalues --   -0.19052  -0.18980
 Alpha virt. eigenvalues --    0.15970   0.18472   0.22553   0.23353   0.25959
 Alpha virt. eigenvalues --    0.27359   0.27836   0.29320   0.31138   0.31614
 Alpha virt. eigenvalues --    0.34017   0.34791   0.40156   0.43174   0.46429

 Mulliken charges:
               1
     1  O   -0.461254
     2  Cl  -0.859269
     3  Cl   0.048578
     4  H    0.271945
 Sum of Mulliken charges =  -1.00000

 Dipole moment (field-independent basis, Debye):
    X=            -10.0108    Y=             -0.7134    Z=              0.2745  Tot=             10.0399
 Quadrupole moment (field-independent basis, Debye-Ang):
   XX=            -69.8027   YY=            -37.0088   ZZ=            -36.4818
   XY=              0.4754   XZ=              0.1894   YZ=             -0.1111

 Summary of Natural Population Analysis:

                                       Natural Population
                Natural  -----------------------------------------------
    Atom  No    Charge         Core      Valence    Rydberg      Total
 -----------------------------------------------------------------------
      O    1   -0.75466      1.99969     6.64456    0.11041     8.75466
     Cl    2   -0.88659     10.00005     7.73923    0.14731    17.88659
     Cl    3    0.15442      9.99981     6.70062    0.14514    16.84558
      H    4    0.48683      0.00000     0.48692    0.02625     0.51317
 =======================================================================
   * Total *   -1.00000     21.99956    21.57133    0.42911    44.00000

 Normal termination of Gaussian 16 at Tue Feb 22 12:52:32 2022.
