 Gaussian 16, Revision B.01,
 Gaussian 16:  ES64L-G16RevB.01 20-Dec-2017

 --------------------------------------------------------
 #p pop=NBO SP NoSymm mp2/gen Pseudo=read density=current
 --------------------------------------------------------

 -----
 title
 -----
 Symbolic Z-matrix:
 Charge = -1 Multiplicity = 1

                          Input orientation:
 ---------------------------------------------------------------------
 Center     Atomic      Atomic             Coordinates (Angstroms)
 Number     Number       Type             X           Y           Z
 ---------------------------------------------------------------------
      1          8           0        0.000000    0.000000    0.000000
      2          1           0        0.960482    0.000000    0.000000
      3         35           0       -0.656753   -3.183800    0.000000
      4          1           0       -0.181824   -0.881442    0.000000
 ---------------------------------------------------------------------

 SCF Done:  E(RHF) =  -491.648809923     A.U. after   11 cycles
 E2 =    -0.5135892165D+00 EUMP2 =    -0.49216239913908D+03

 Alpha  occ. eigenvalues --  -20.38849  -9.53932  -7.28696  -7.28681  -7.28678
 Alpha  occ. eigenvalues --   -2.83797  -2.83794  -2.83791  -2.83779  -2.83779
 Alpha  occ. eigenvalues --   -1.19864  -0.73357  -0.55606  -0.42897  -0.34324
 Alpha  occ. eigenvalues --   -0.16058  -0.15552  -0.15512
 Alpha virt. eigenvalues --    0.13463   0.17385   0.25014   0.25908   0.26763
 Alpha virt. eigenvalues --    0.27919   0.29760   0.29891   0.33677   0.34475
 Alpha virt. eigenvalues --    0.39718   0.40778   0.41473   0.46232   0.47628

 Mulliken charges:
               1
     1  O   -0.470029
     2  H    0.170399
     3  Br  -0.951315
     4  H    0.250945
 Sum of Mulliken charges =  -1.00000

 Dipole moment (field-independent basis, Debye):
    X=              3.9615    Y=             12.7435    Z=              0.0000  Tot=             13.3450
 Quadrupole moment (field-independent basis, Debye-Ang):
   XX=            -30.5047   YY=            -74.8106   ZZ=            -31.3155
   XY=             -8.5014   XZ=              0.0000   YZ=              0.0000

 Summary of Natural Population Analysis:

                                       Natural Population
                Natural  -----------------------------------------------
    Atom  No    Charge         Core      Valence    Rydberg      Total
 -----------------------------------------------------------------------
      O    1   -1.36410      1.99991     7.25837    0.10582     9.36410
      H    2    0.66121      0.00000     0.33279    0.00600     0.33879
     Br    3   -0.98125     27.98856     7.83455    0.15813    35.98125
      H    4    0.68414      0.00000     0.29272    0.02314     0.31586
 =======================================================================
   * Total *   -1.00000     29.98847    15.71844    0.29309    46.00000

 Normal termination of Gaussian 16 at Fri Oct 15 15:33:02 2021.
