 Gaussian 16, Revision B.01,
 Gaussian 16:  ES64L-G16RevB.01 20-Dec-2017

 --------------------------------------------------------
 #p pop=NBO SP NoSymm mp2/gen Pseudo=read density=current
 --------------------------------------------------------

 -----
 title
 -----
 Symbolic Z-matrix:
 Charge = -1 Multiplicity = 1

                          Input orientation:
 ---------------------------------------------------------------------
 Center     Atomic      Atomic             Coordinates (Angstroms)
 Number     Number       Type             X           Y           Z
 ---------------------------------------------------------------------
      1          8           0        0.000000    0.000000    0.000000
      2          1           0        0.960482    0.000000    0.000000
      3         35           0       -0.656753   -3.183800    0.000000
      4          1           0       -0.161621   -0.783504    0.000000
 ---------------------------------------------------------------------

 SCF Done:  E(RHF) =  -491.617297719     A.U. after   11 cycles
 E2 =    -0.5088529298D+00 EUMP2 =    -0.49212615064901D+03

 Alpha  occ. eigenvalues --  -20.38460  -9.53600  -7.28360  -7.28350  -7.28349
 Alpha  occ. eigenvalues --   -2.83463  -2.83460  -2.83458  -2.83449  -2.83449
 Alpha  occ. eigenvalues --   -1.23865  -0.72948  -0.59082  -0.44155  -0.35375
 Alpha  occ. eigenvalues --   -0.15679  -0.15218  -0.15181
 Alpha virt. eigenvalues --    0.13341   0.17305   0.25081   0.25808   0.26767
 Alpha virt. eigenvalues --    0.27906   0.29437   0.29611   0.33819   0.34245
 Alpha virt. eigenvalues --    0.39558   0.40552   0.41338   0.46318   0.47739

 Mulliken charges:
               1
     1  O   -0.367797
     2  H    0.179758
     3  Br  -0.969726
     4  H    0.157765
 Sum of Mulliken charges =  -1.00000

 Dipole moment (field-independent basis, Debye):
    X=              4.0637    Y=             13.0839    Z=             -0.0000  Tot=             13.7004
 Quadrupole moment (field-independent basis, Debye-Ang):
   XX=            -30.4858   YY=            -75.8410   ZZ=            -31.2549
   XY=             -8.7003   XZ=              0.0000   YZ=              0.0000

 Summary of Natural Population Analysis:

                                       Natural Population
                Natural  -----------------------------------------------
    Atom  No    Charge         Core      Valence    Rydberg      Total
 -----------------------------------------------------------------------
      O    1   -1.32104      1.99988     7.21779    0.10337     9.32104
      H    2    0.65835      0.00000     0.33584    0.00581     0.34165
     Br    3   -0.98823     27.98858     7.84041    0.15925    35.98823
      H    4    0.65093      0.00000     0.32595    0.02312     0.34907
 =======================================================================
   * Total *   -1.00000     29.98846    15.71999    0.29155    46.00000

 Normal termination of Gaussian 16 at Fri Oct 15 15:32:24 2021.
