 Gaussian 16, Revision B.01,
 Gaussian 16:  ES64L-G16RevB.01 20-Dec-2017

 --------------------------------------------------------
 #p pop=NBO SP NoSymm mp2/gen Pseudo=read density=current
 --------------------------------------------------------

 -----
 title
 -----
 Symbolic Z-matrix:
 Charge = -1 Multiplicity = 1

                          Input orientation:
 ---------------------------------------------------------------------
 Center     Atomic      Atomic             Coordinates (Angstroms)
 Number     Number       Type             X           Y           Z
 ---------------------------------------------------------------------
      1          8           0        0.000000    0.000000    0.000000
      2          1           0        0.960482    0.000000    0.000000
      3         35           0       -0.656753   -3.183800    0.000000
      4          1           0       -0.171722   -0.832473    0.000000
 ---------------------------------------------------------------------

 SCF Done:  E(RHF) =  -491.638131889     A.U. after   11 cycles
 E2 =    -0.5111574551D+00 EUMP2 =    -0.49214928934376D+03

 Alpha  occ. eigenvalues --  -20.38707  -9.53752  -7.28514  -7.28502  -7.28500
 Alpha  occ. eigenvalues --   -2.83615  -2.83612  -2.83611  -2.83601  -2.83601
 Alpha  occ. eigenvalues --   -1.21759  -0.73138  -0.57334  -0.43558  -0.34862
 Alpha  occ. eigenvalues --   -0.15858  -0.15373  -0.15334
 Alpha virt. eigenvalues --    0.13398   0.17349   0.25051   0.25863   0.26771
 Alpha virt. eigenvalues --    0.27909   0.29602   0.29746   0.33752   0.34354
 Alpha virt. eigenvalues --    0.39636   0.40660   0.41401   0.46267   0.47689

 Mulliken charges:
               1
     1  O   -0.419288
     2  H    0.174414
     3  Br  -0.961550
     4  H    0.206424
 Sum of Mulliken charges =  -1.00000

 Dipole moment (field-independent basis, Debye):
    X=              4.0151    Y=             12.9259    Z=             -0.0000  Tot=             13.5351
 Quadrupole moment (field-independent basis, Debye-Ang):
   XX=            -30.5010   YY=            -75.3736   ZZ=            -31.2891
   XY=             -8.6096   XZ=              0.0000   YZ=              0.0000

 Summary of Natural Population Analysis:

                                       Natural Population
                Natural  -----------------------------------------------
    Atom  No    Charge         Core      Valence    Rydberg      Total
 -----------------------------------------------------------------------
      O    1   -1.34506      1.99990     7.24061    0.10454     9.34506
      H    2    0.66004      0.00000     0.33406    0.00590     0.33996
     Br    3   -0.98541     27.98857     7.83812    0.15872    35.98541
      H    4    0.67043      0.00000     0.30643    0.02314     0.32957
 =======================================================================
   * Total *   -1.00000     29.98847    15.71922    0.29231    46.00000

 Normal termination of Gaussian 16 at Fri Oct 15 15:32:43 2021.
