 Gaussian 16, Revision B.01,
 Gaussian 16:  ES64L-G16RevB.01 20-Dec-2017

 --------------------------------------------------------
 #p pop=NBO SP NoSymm mp2/gen Pseudo=read density=current
 --------------------------------------------------------

 -----
 title
 -----
 Symbolic Z-matrix:
 Charge = -1 Multiplicity = 1

                          Input orientation:
 ---------------------------------------------------------------------
 Center     Atomic      Atomic             Coordinates (Angstroms)
 Number     Number       Type             X           Y           Z
 ---------------------------------------------------------------------
      1          8           0        0.000000    0.000000    0.000000
      2          1           0        0.960482    0.000000    0.000000
      3         35           0       -0.656753   -3.183800    0.000000
      4          1           0       -0.212128   -1.028349    0.000000
 ---------------------------------------------------------------------

 SCF Done:  E(RHF) =  -491.645716144     A.U. after   11 cycles
 E2 =    -0.5214794668D+00 EUMP2 =    -0.49216719561040D+03

 Alpha  occ. eigenvalues --  -20.38550  -9.54688  -7.29468  -7.29430  -7.29425
 Alpha  occ. eigenvalues --   -2.84570  -2.84557  -2.84552  -2.84518  -2.84518
 Alpha  occ. eigenvalues --   -1.15106  -0.74239  -0.50714  -0.40457  -0.32474
 Alpha  occ. eigenvalues --   -0.16805  -0.16269  -0.16224
 Alpha virt. eigenvalues --    0.13724   0.17436   0.24885   0.25967   0.26627
 Alpha virt. eigenvalues --    0.28006   0.30151   0.30398   0.33499   0.34863
 Alpha virt. eigenvalues --    0.40048   0.41199   0.41716   0.46198   0.47356

 Mulliken charges:
               1
     1  O   -0.564548
     2  H    0.166738
     3  Br  -0.906110
     4  H    0.303919
 Sum of Mulliken charges =  -1.00000

 Dipole moment (field-independent basis, Debye):
    X=              3.7614    Y=             12.0156    Z=             -0.0000  Tot=             12.5906
 Quadrupole moment (field-independent basis, Debye-Ang):
   XX=            -30.4358   YY=            -72.4323   ZZ=            -31.3425
   XY=             -8.0513   XZ=              0.0000   YZ=              0.0000

 Summary of Natural Population Analysis:

                                       Natural Population
                Natural  -----------------------------------------------
    Atom  No    Charge         Core      Valence    Rydberg      Total
 -----------------------------------------------------------------------
      O    1   -1.40133      1.99992     7.29076    0.11065     9.40133
      H    2    0.66175      0.00000     0.33190    0.00635     0.33825
     Br    3   -0.95725     27.98851     7.81269    0.15605    35.95725
      H    4    0.69680      0.00000     0.28029    0.02291     0.30320
 =======================================================================
   * Total *   -1.00002     29.98843    15.71564    0.29596    46.00002

 Normal termination of Gaussian 16 at Fri Oct 15 15:34:01 2021.
