 Gaussian 16, Revision B.01,
 Gaussian 16:  ES64L-G16RevB.01 20-Dec-2017

 --------------------------------------------------------
 #p pop=NBO SP NoSymm mp2/gen Pseudo=read density=current
 --------------------------------------------------------

 -----
 title
 -----
 Symbolic Z-matrix:
 Charge = -1 Multiplicity = 1

                          Input orientation:
 ---------------------------------------------------------------------
 Center     Atomic      Atomic             Coordinates (Angstroms)
 Number     Number       Type             X           Y           Z
 ---------------------------------------------------------------------
      1          8           0        0.000000    0.000000    0.000000
      2          1           0        0.960482    0.000000    0.000000
      3         35           0       -0.656753   -3.183800    0.000000
      4          1           0       -0.151520   -0.734535    0.000000
 ---------------------------------------------------------------------

 SCF Done:  E(RHF) =  -491.582244434     A.U. after   11 cycles
 E2 =    -0.5066880604D+00 EUMP2 =    -0.49208893249414D+03

 Alpha  occ. eigenvalues --  -20.38126  -9.53471  -7.28231  -7.28221  -7.28220
 Alpha  occ. eigenvalues --   -2.83335  -2.83333  -2.83329  -2.83320  -2.83319
 Alpha  occ. eigenvalues --   -1.26210  -0.72784  -0.60830  -0.44697  -0.35868
 Alpha  occ. eigenvalues --   -0.15521  -0.15083  -0.15048
 Alpha virt. eigenvalues --    0.13293   0.17255   0.25100   0.25741   0.26758
 Alpha virt. eigenvalues --    0.27907   0.29275   0.29485   0.33851   0.34165
 Alpha virt. eigenvalues --    0.39479   0.40452   0.41285   0.46385   0.47778

 Mulliken charges:
               1
     1  O   -0.324347
     2  H    0.185396
     3  Br  -0.976076
     4  H    0.115027
 Sum of Mulliken charges =  -1.00000

 Dipole moment (field-independent basis, Debye):
    X=              4.1082    Y=             13.2206    Z=             -0.0000  Tot=             13.8442
 Quadrupole moment (field-independent basis, Debye-Ang):
   XX=            -30.4600   YY=            -76.2241   ZZ=            -31.2135
   XY=             -8.7755   XZ=             -0.0000   YZ=              0.0000

 Summary of Natural Population Analysis:

                                       Natural Population
                Natural  -----------------------------------------------
    Atom  No    Charge         Core      Valence    Rydberg      Total
 -----------------------------------------------------------------------
      O    1   -1.27531      1.99985     7.19172    0.08374     9.27531
      H    2    0.65000      0.00000     0.33865    0.01136     0.35000
     Br    3   -0.99050     27.98858     7.84175    0.16016    35.99050
      H    4    0.61581      0.00000     0.35142    0.03277     0.38419
 =======================================================================
   * Total *   -1.00000     29.98843    15.72354    0.28803    46.00000

 Normal termination of Gaussian 16 at Fri Oct 15 15:32:04 2021.
