 Gaussian 16, Revision B.01,
 Gaussian 16:  ES64L-G16RevB.01 20-Dec-2017

 --------------------------------------------------------
 #p pop=NBO SP NoSymm mp2/gen Pseudo=read density=current
 --------------------------------------------------------

 -----
 title
 -----
 Symbolic Z-matrix:
 Charge = -1 Multiplicity = 1

                          Input orientation:
 ---------------------------------------------------------------------
 Center     Atomic      Atomic             Coordinates (Angstroms)
 Number     Number       Type             X           Y           Z
 ---------------------------------------------------------------------
      1          8           0        0.000000    0.000000    0.000000
      2          1           0        0.960482    0.000000    0.000000
      3         35           0       -0.656753   -3.183800    0.000000
      4          1           0       -0.191925   -0.930411    0.000000
 ---------------------------------------------------------------------

 SCF Done:  E(RHF) =  -491.652284051     A.U. after   11 cycles
 E2 =    -0.5161330036D+00 EUMP2 =    -0.49216841705477D+03

 Alpha  occ. eigenvalues --  -20.38876  -9.54144  -7.28912  -7.28892  -7.28888
 Alpha  occ. eigenvalues --   -2.84013  -2.84008  -2.84004  -2.83988  -2.83987
 Alpha  occ. eigenvalues --   -1.18146  -0.73610  -0.53918  -0.42164  -0.33752
 Alpha  occ. eigenvalues --   -0.16281  -0.15758  -0.15716
 Alpha virt. eigenvalues --    0.13538   0.17412   0.24973   0.25941   0.26738
 Alpha virt. eigenvalues --    0.27938   0.29904   0.30047   0.33608   0.34599
 Alpha virt. eigenvalues --    0.39813   0.40907   0.41551   0.46210   0.47554

 Mulliken charges:
               1
     1  O   -0.512718
     2  H    0.168088
     3  Br  -0.938828
     4  H    0.283458
 Sum of Mulliken charges =  -1.00000

 Dipole moment (field-independent basis, Debye):
    X=              3.9020    Y=             12.5333    Z=             -0.0000  Tot=             13.1266
 Quadrupole moment (field-independent basis, Debye-Ang):
   XX=            -30.4957   YY=            -74.1403   ZZ=            -31.3337
   XY=             -8.3737   XZ=             -0.0000   YZ=              0.0000

 Summary of Natural Population Analysis:

                                       Natural Population
                Natural  -----------------------------------------------
    Atom  No    Charge         Core      Valence    Rydberg      Total
 -----------------------------------------------------------------------
      O    1   -1.37925      1.99991     7.27210    0.10724     9.37925
      H    2    0.66186      0.00000     0.33204    0.00611     0.33814
     Br    3   -0.97537     27.98855     7.82933    0.15748    35.97537
      H    4    0.69276      0.00000     0.28414    0.02310     0.30724
 =======================================================================
   * Total *   -1.00000     29.98847    15.71760    0.29393    46.00000

 Normal termination of Gaussian 16 at Fri Oct 15 15:33:23 2021.
