 Gaussian 16, Revision B.01,
 Gaussian 16:  ES64L-G16RevB.01 20-Dec-2017

 --------------------------------------------------------
 #p pop=NBO SP NoSymm mp2/gen Pseudo=read density=current
 --------------------------------------------------------

 -----
 title
 -----
 Symbolic Z-matrix:
 Charge = -1 Multiplicity = 1

                          Input orientation:
 ---------------------------------------------------------------------
 Center     Atomic      Atomic             Coordinates (Angstroms)
 Number     Number       Type             X           Y           Z
 ---------------------------------------------------------------------
      1          8           0        0.000000    0.000000    0.000000
      2          1           0        0.960482    0.000000    0.000000
      3         35           0       -0.656753   -3.183800    0.000000
      4          1           0       -0.232330   -1.126287    0.000000
 ---------------------------------------------------------------------

 SCF Done:  E(RHF) =  -491.629905808     A.U. after   12 cycles
 E2 =    -0.5270126678D+00 EUMP2 =    -0.49215691847554D+03

 Alpha  occ. eigenvalues --  -20.37680  -9.55430  -7.30229  -7.30162  -7.30157
 Alpha  occ. eigenvalues --   -2.85334  -2.85309  -2.85304  -2.85239  -2.85239
 Alpha  occ. eigenvalues --   -1.12378  -0.75070  -0.47771  -0.38452  -0.30958
 Alpha  occ. eigenvalues --   -0.17429  -0.16942  -0.16893
 Alpha virt. eigenvalues --    0.13964   0.17415   0.24776   0.25930   0.26437
 Alpha virt. eigenvalues --    0.28123   0.30401   0.30810   0.33388   0.35167
 Alpha virt. eigenvalues --    0.40328   0.41539   0.41858   0.46194   0.47039

 Mulliken charges:
               1
     1  O   -0.588002
     2  H    0.164794
     3  Br  -0.860596
     4  H    0.283804
 Sum of Mulliken charges =  -1.00000

 Dipole moment (field-independent basis, Debye):
    X=              3.5870    Y=             11.3496    Z=             -0.0000  Tot=             11.9030
 Quadrupole moment (field-independent basis, Debye-Ang):
   XX=            -30.3162   YY=            -70.1778   ZZ=            -31.3134
   XY=             -7.6290   XZ=             -0.0000   YZ=              0.0000

 Summary of Natural Population Analysis:

                                       Natural Population
                Natural  -----------------------------------------------
    Atom  No    Charge         Core      Valence    Rydberg      Total
 -----------------------------------------------------------------------
      O    1   -1.40943      1.99992     7.30356    0.10595     9.40943
      H    2    0.65215      0.00000     0.33302    0.01483     0.34785
     Br    3   -0.92970     27.98844     7.78694    0.15432    35.92970
      H    4    0.68698      0.00000     0.29147    0.02155     0.31302
 =======================================================================
   * Total *   -1.00000     29.98836    15.71499    0.29666    46.00000

 Normal termination of Gaussian 16 at Fri Oct 15 15:34:40 2021.
