 Gaussian 16, Revision B.01,
 Gaussian 16:  ES64L-G16RevB.01 20-Dec-2017

 --------------------------------------------------------
 #p pop=NBO SP NoSymm mp2/gen Pseudo=read density=current
 --------------------------------------------------------

 -----
 title
 -----
 Symbolic Z-matrix:
 Charge = -1 Multiplicity = 1

                          Input orientation:
 ---------------------------------------------------------------------
 Center     Atomic      Atomic             Coordinates (Angstroms)
 Number     Number       Type             X           Y           Z
 ---------------------------------------------------------------------
      1          8           0        0.000000    0.000000    0.000000
      2          1           0        0.960482    0.000000    0.000000
      3         35           0       -0.656753   -3.183800    0.000000
      4          1           0       -0.292938   -1.420101    0.000000
 ---------------------------------------------------------------------

 SCF Done:  E(RHF) =  -491.579958993     A.U. after   12 cycles
 E2 =    -0.5408804950D+00 EUMP2 =    -0.49212083948820D+03

 Alpha  occ. eigenvalues --  -20.32007  -9.59098  -7.33999  -7.33776  -7.33771
 Alpha  occ. eigenvalues --   -2.89125  -2.89030  -2.89025  -2.88790  -2.88790
 Alpha  occ. eigenvalues --   -1.04486  -0.79102  -0.39988  -0.33038  -0.24741
 Alpha  occ. eigenvalues --   -0.20136  -0.20019  -0.18993
 Alpha virt. eigenvalues --    0.15028   0.16982   0.24074   0.25340   0.25516
 Alpha virt. eigenvalues --    0.28802   0.31807   0.32471   0.32857   0.36331
 Alpha virt. eigenvalues --    0.41044   0.41547   0.42482   0.44784   0.45863

 Mulliken charges:
               1
     1  O   -0.699065
     2  H    0.138841
     3  Br  -0.633915
     4  H    0.194139
 Sum of Mulliken charges =  -1.00000

 Dipole moment (field-independent basis, Debye):
    X=              2.8699    Y=              8.5247    Z=             -0.0000  Tot=              8.9948
 Quadrupole moment (field-independent basis, Debye-Ang):
   XX=            -29.6696   YY=            -60.5802   ZZ=            -31.0761
   XY=             -5.8303   XZ=              0.0000   YZ=              0.0000

 Summary of Natural Population Analysis:

                                       Natural Population
                Natural  -----------------------------------------------
    Atom  No    Charge         Core      Valence    Rydberg      Total
 -----------------------------------------------------------------------
      O    1   -1.44371      1.99992     7.32684    0.11695     9.44371
      H    2    0.64053      0.00000     0.34133    0.01815     0.35947
     Br    3   -0.80507     27.98816     7.66819    0.14872    35.80507
      H    4    0.60808      0.00000     0.37049    0.02143     0.39192
 =======================================================================
   * Total *   -1.00018     29.98809    15.70685    0.30524    46.00018

 Normal termination of Gaussian 16 at Fri Oct 15 15:36:40 2021.
