 Gaussian 16, Revision B.01,
 Gaussian 16:  ES64L-G16RevB.01 20-Dec-2017

 ----------------------------------------------------
 # opt=(z-matrix) mp2/gen Pseudo=read density=current
 ----------------------------------------------------

 -----
 title
 -----
 Symbolic Z-matrix:
 Charge = -1 Multiplicity = 1

 SCF Done:  E(RHF) =  -491.477430076     A.U. after   13 cycles
 E2 =    -0.5504365566D+00 EUMP2 =    -0.49202786663274D+03
 SCF Done:  E(RHF) =  -491.515927985     A.U. after   12 cycles
 E2 =    -0.5442280803D+00 EUMP2 =    -0.49206015606550D+03
 SCF Done:  E(RHF) =  -491.587703547     A.U. after   12 cycles
 E2 =    -0.5336392071D+00 EUMP2 =    -0.49212134275390D+03
 SCF Done:  E(RHF) =  -491.624026687     A.U. after   11 cycles
 E2 =    -0.5145228595D+00 EUMP2 =    -0.49213854954604D+03
 SCF Done:  E(RHF) =  -491.445769547     A.U. after   11 cycles
 E2 =    -0.5083459500D+00 EUMP2 =    -0.49195411549663D+03
 SCF Done:  E(RHF) =  -491.636343209     A.U. after   11 cycles
 E2 =    -0.5143083865D+00 EUMP2 =    -0.49215065159545D+03
 SCF Done:  E(RHF) =  -491.645916117     A.U. after    9 cycles
 E2 =    -0.5166304653D+00 EUMP2 =    -0.49216254658234D+03
 SCF Done:  E(RHF) =  -491.602058348     A.U. after   13 cycles
 E2 =    -0.5317658413D+00 EUMP2 =    -0.49213382418893D+03
 SCF Done:  E(RHF) =  -491.651630461     A.U. after   10 cycles
 E2 =    -0.5151518524D+00 EUMP2 =    -0.49216678231387D+03
 SCF Done:  E(RHF) =  -491.652738925     A.U. after    9 cycles
 E2 =    -0.5155056083D+00 EUMP2 =    -0.49216824453316D+03
 SCF Done:  E(RHF) =  -491.652882902     A.U. after    9 cycles
 E2 =    -0.5159221524D+00 EUMP2 =    -0.49216880505483D+03
 SCF Done:  E(RHF) =  -491.652774304     A.U. after    9 cycles
 E2 =    -0.5164341114D+00 EUMP2 =    -0.49216920841509D+03
 SCF Done:  E(RHF) =  -491.652616936     A.U. after    8 cycles
 E2 =    -0.5166843568D+00 EUMP2 =    -0.49216930129296D+03
 SCF Done:  E(RHF) =  -491.652487525     A.U. after    8 cycles
 E2 =    -0.5168676154D+00 EUMP2 =    -0.49216935514006D+03
 SCF Done:  E(RHF) =  -491.652248794     A.U. after    8 cycles
 E2 =    -0.5171959891D+00 EUMP2 =    -0.49216944478278D+03
 SCF Done:  E(RHF) =  -491.651825692     A.U. after    9 cycles
 E2 =    -0.5177191476D+00 EUMP2 =    -0.49216954483993D+03
 SCF Done:  E(RHF) =  -491.651563128     A.U. after    8 cycles
 E2 =    -0.5180176821D+00 EUMP2 =    -0.49216958081041D+03
 SCF Done:  E(RHF) =  -491.651474995     A.U. after    8 cycles
 E2 =    -0.5181140514D+00 EUMP2 =    -0.49216958904630D+03
 SCF Done:  E(RHF) =  -491.651457677     A.U. after    7 cycles
 E2 =    -0.5181327522D+00 EUMP2 =    -0.49216959042912D+03
 Optimization completed.
    -- Stationary point found.

                         Standard orientation:
 ---------------------------------------------------------------------
 Center     Atomic      Atomic             Coordinates (Angstroms)
 Number     Number       Type             X           Y           Z
 ---------------------------------------------------------------------
      1          8           0        0.020904    2.546069    0.000000
      2          1           0       -0.919773    2.740112   -0.000000
      3         35           0        0.020904   -0.704762    0.000000
      4          1           0        0.020904    1.558014    0.000000
 ---------------------------------------------------------------------

 The electronic state is 1-A'.
 Alpha  occ. eigenvalues --  -20.38814  -9.54331  -7.29103  -7.29077  -7.29073
 Alpha  occ. eigenvalues --   -2.84204  -2.84196  -2.84192  -2.84170  -2.84170
 Alpha  occ. eigenvalues --   -1.16937  -0.73829  -0.52668  -0.41553  -0.33289
 Alpha  occ. eigenvalues --   -0.16468  -0.15936  -0.15893
 Alpha virt. eigenvalues --    0.13603   0.17426   0.24941   0.25958   0.26705
 Alpha virt. eigenvalues --    0.27958   0.30003   0.30174   0.33563   0.34697
 Alpha virt. eigenvalues --    0.39895   0.41012   0.41614   0.46202   0.47488

 Mulliken charges:
               1
     1  O   -0.537561
     2  H    0.167275
     3  Br  -0.927679
     4  H    0.297965
 Sum of Mulliken charges =  -1.00000

 Dipole moment (field-independent basis, Debye):
    X=             -1.3776    Y=              0.6467    Z=             -0.0000  Tot=              1.5218
 Quadrupole moment (field-independent basis, Debye-Ang):
   XX=            -29.0237   YY=            -40.6329   ZZ=            -31.3415
   XY=             -4.1727   XZ=             -0.0000   YZ=             -0.0000

 Normal termination of Gaussian 16 at Fri Oct 15 15:16:36 2021.
