 Gaussian 16, Revision B.01,
 Gaussian 16:  ES64L-G16RevB.01 20-Dec-2017

 --------------------------------------------------------
 #p pop=NBO SP NoSymm mp2/gen Pseudo=read density=current
 --------------------------------------------------------

 -----
 title
 -----
 Symbolic Z-matrix:
 Charge = -1 Multiplicity = 1

                          Input orientation:
 ---------------------------------------------------------------------
 Center     Atomic      Atomic             Coordinates (Angstroms)
 Number     Number       Type             X           Y           Z
 ---------------------------------------------------------------------
      1          8           0        0.000000    0.000000    0.000000
      2          1           0        0.960482    0.000000    0.000000
      3         35           0       -0.656753   -3.183800    0.000000
      4          1           0       -0.303039   -1.469070    0.000000
 ---------------------------------------------------------------------

 SCF Done:  E(RHF) =  -491.574380027     A.U. after   12 cycles
 E2 =    -0.5420674352D+00 EUMP2 =    -0.49211644746223D+03

 Alpha  occ. eigenvalues --  -20.30784  -9.59872  -7.34795  -7.34540  -7.34535
 Alpha  occ. eigenvalues --   -2.89927  -2.89815  -2.89811  -2.89541  -2.89541
 Alpha  occ. eigenvalues --   -1.03186  -0.79990  -0.38876  -0.32706  -0.23595
 Alpha  occ. eigenvalues --   -0.20804  -0.20626  -0.18924
 Alpha virt. eigenvalues --    0.15237   0.16850   0.23909   0.25180   0.25333
 Alpha virt. eigenvalues --    0.28930   0.32090   0.32788   0.32842   0.36531
 Alpha virt. eigenvalues --    0.41049   0.41488   0.42509   0.44505   0.45743

 Mulliken charges:
               1
     1  O   -0.729359
     2  H    0.132757
     3  Br  -0.587209
     4  H    0.183810
 Sum of Mulliken charges =  -1.00000

 Dipole moment (field-independent basis, Debye):
    X=              2.7323    Y=              7.9779    Z=              0.0000  Tot=              8.4328
 Quadrupole moment (field-independent basis, Debye-Ang):
   XX=            -29.5415   YY=            -58.7606   ZZ=            -31.0317
   XY=             -5.4861   XZ=             -0.0000   YZ=             -0.0000

 Summary of Natural Population Analysis:

                                       Natural Population
                Natural  -----------------------------------------------
    Atom  No    Charge         Core      Valence    Rydberg      Total
 -----------------------------------------------------------------------
      O    1   -1.45331      1.99993     7.33418    0.11920     9.45331
      H    2    0.63808      0.00000     0.34289    0.01903     0.36192
     Br    3   -0.78176     27.98812     7.64597    0.14767    35.78176
      H    4    0.59677      0.00000     0.38152    0.02170     0.40323
 =======================================================================
   * Total *   -1.00022     29.98805    15.70457    0.30760    46.00022

 Normal termination of Gaussian 16 at Fri Oct 15 15:36:59 2021.
