 Gaussian 16, Revision B.01,
 Gaussian 16:  ES64L-G16RevB.01 20-Dec-2017

 --------------------------------------------------------
 #p pop=NBO SP NoSymm mp2/gen Pseudo=read density=current
 --------------------------------------------------------

 -----
 title
 -----
 Symbolic Z-matrix:
 Charge = -1 Multiplicity = 1

                          Input orientation:
 ---------------------------------------------------------------------
 Center     Atomic      Atomic             Coordinates (Angstroms)
 Number     Number       Type             X           Y           Z
 ---------------------------------------------------------------------
      1          8           0        0.000000    0.000000    0.000000
      2          1           0        0.960482    0.000000    0.000000
      3         35           0       -0.656753   -3.183800    0.000000
      4          1           0       -0.262634   -1.273194    0.000000
 ---------------------------------------------------------------------

 SCF Done:  E(RHF) =  -491.602425890     A.U. after   12 cycles
 E2 =    -0.5349690823D+00 EUMP2 =    -0.49213739497203D+03

 Alpha  occ. eigenvalues --  -20.35341  -9.56999  -7.31842  -7.31708  -7.31703
 Alpha  occ. eigenvalues --   -2.86955  -2.86901  -2.86896  -2.86759  -2.86758
 Alpha  occ. eigenvalues --   -1.08448  -0.76785  -0.43727  -0.35285  -0.28130
 Alpha  occ. eigenvalues --   -0.18449  -0.18311  -0.18258
 Alpha virt. eigenvalues --    0.14438   0.17276   0.24506   0.25726   0.26029
 Alpha virt. eigenvalues --    0.28411   0.30965   0.31568   0.33133   0.35720
 Alpha virt. eigenvalues --    0.40756   0.41868   0.42095   0.45956   0.46104

 Mulliken charges:
               1
     1  O   -0.627284
     2  H    0.155053
     3  Br  -0.762757
     4  H    0.234988
 Sum of Mulliken charges =  -1.00000

 Dipole moment (field-independent basis, Debye):
    X=              3.2590    Y=             10.0656    Z=              0.0000  Tot=             10.5800
 Quadrupole moment (field-independent basis, Debye-Ang):
   XX=            -30.0326   YY=            -65.7894   ZZ=            -31.2108
   XY=             -6.8089   XZ=             -0.0000   YZ=              0.0000

 Summary of Natural Population Analysis:

                                       Natural Population
                Natural  -----------------------------------------------
    Atom  No    Charge         Core      Valence    Rydberg      Total
 -----------------------------------------------------------------------
      O    1   -1.42409      1.99992     7.31323    0.11094     9.42409
      H    2    0.64723      0.00000     0.33671    0.01606     0.35277
     Br    3   -0.87320     27.98830     7.73311    0.15179    35.87320
      H    4    0.64998      0.00000     0.32877    0.02125     0.35002
 =======================================================================
   * Total *   -1.00007     29.98822    15.71182    0.30004    46.00007

 Normal termination of Gaussian 16 at Fri Oct 15 15:35:40 2021.
