 Gaussian 16, Revision B.01,
 Gaussian 16:  ES64L-G16RevB.01 20-Dec-2017

 --------------------------------------------------------
 #p pop=NBO SP NoSymm mp2/gen Pseudo=read density=current
 --------------------------------------------------------

 -----
 title
 -----
 Symbolic Z-matrix:
 Charge = -1 Multiplicity = 1

                          Input orientation:
 ---------------------------------------------------------------------
 Center     Atomic      Atomic             Coordinates (Angstroms)
 Number     Number       Type             X           Y           Z
 ---------------------------------------------------------------------
      1          8           0        0.000000    0.000000    0.000000
      2          1           0        0.960482    0.000000    0.000000
      3         35           0       -0.656753   -3.183800    0.000000
      4          1           0       -0.272735   -1.322163    0.000000
 ---------------------------------------------------------------------

 SCF Done:  E(RHF) =  -491.594064323     A.U. after   12 cycles
 E2 =    -0.5372713598D+00 EUMP2 =    -0.49213133568240D+03

 Alpha  occ. eigenvalues --  -20.34315  -9.57648  -7.32508  -7.32347  -7.32342
 Alpha  occ. eigenvalues --   -2.87626  -2.87559  -2.87554  -2.87386  -2.87386
 Alpha  occ. eigenvalues --   -1.07129  -0.77493  -0.42441  -0.34361  -0.27045
 Alpha  occ. eigenvalues --   -0.18896  -0.18811  -0.18706
 Alpha virt. eigenvalues --    0.14624   0.17196   0.24378   0.25616   0.25867
 Alpha virt. eigenvalues --    0.28535   0.31221   0.31856   0.33030   0.35922
 Alpha virt. eigenvalues --    0.40880   0.41779   0.42261   0.45504   0.46041

 Mulliken charges:
               1
     1  O   -0.647514
     2  H    0.150153
     3  Br  -0.722498
     4  H    0.219859
 Sum of Mulliken charges =  -1.00000

 Dipole moment (field-independent basis, Debye):
    X=              3.1344    Y=              9.5735    Z=              0.0000  Tot=             10.0735
 Quadrupole moment (field-independent basis, Debye-Ang):
   XX=            -29.9172   YY=            -64.1146   ZZ=            -31.1670
   XY=             -6.4952   XZ=              0.0000   YZ=             -0.0000

 Summary of Natural Population Analysis:

                                       Natural Population
                Natural  -----------------------------------------------
    Atom  No    Charge         Core      Valence    Rydberg      Total
 -----------------------------------------------------------------------
      O    1   -1.42941      1.99992     7.31669    0.11279     9.42941
      H    2    0.64513      0.00000     0.33821    0.01666     0.35487
     Br    3   -0.85122     27.98825     7.71217    0.15081    35.85122
      H    4    0.63540      0.00000     0.34338    0.02122     0.36460
 =======================================================================
   * Total *   -1.00011     29.98817    15.71046    0.30147    46.00011

 Normal termination of Gaussian 16 at Fri Oct 15 15:36:00 2021.
