 Gaussian 16, Revision B.01,
 Gaussian 16:  ES64L-G16RevB.01 20-Dec-2017

 --------------------------------------------------------
 #p pop=NBO SP NoSymm mp2/gen Pseudo=read density=current
 --------------------------------------------------------

 -----
 title
 -----
 Symbolic Z-matrix:
 Charge = -1 Multiplicity = 1

                          Input orientation:
 ---------------------------------------------------------------------
 Center     Atomic      Atomic             Coordinates (Angstroms)
 Number     Number       Type             X           Y           Z
 ---------------------------------------------------------------------
      1          8           0        0.000000    0.000000    0.000000
      2          1           0        0.960482    0.000000    0.000000
      3         35           0       -0.656753   -3.183800    0.000000
      4          1           0       -0.282837   -1.371132    0.000000
 ---------------------------------------------------------------------

 SCF Done:  E(RHF) =  -491.586533929     A.U. after   12 cycles
 E2 =    -0.5392657370D+00 EUMP2 =    -0.49212579966553D+03

 Alpha  occ. eigenvalues --  -20.33195  -9.58351  -7.33231  -7.33040  -7.33035
 Alpha  occ. eigenvalues --   -2.88353  -2.88272  -2.88268  -2.88067  -2.88067
 Alpha  occ. eigenvalues --   -1.05805  -0.78267  -0.41188  -0.33596  -0.25907
 Alpha  occ. eigenvalues --   -0.19495  -0.19403  -0.18913
 Alpha virt. eigenvalues --    0.14822   0.17097   0.24232   0.25486   0.25695
 Alpha virt. eigenvalues --    0.28668   0.31506   0.32159   0.32932   0.36128
 Alpha virt. eigenvalues --    0.40982   0.41659   0.42395   0.45111   0.45961

 Mulliken charges:
               1
     1  O   -0.671582
     2  H    0.144692
     3  Br  -0.679287
     4  H    0.206178
 Sum of Mulliken charges =  -1.00000

 Dipole moment (field-independent basis, Debye):
    X=              3.0043    Y=              9.0581    Z=             -0.0000  Tot=              9.5433
 Quadrupole moment (field-independent basis, Debye-Ang):
   XX=            -29.7955   YY=            -62.3709   ZZ=            -31.1216
   XY=             -6.1677   XZ=             -0.0000   YZ=              0.0000

 Summary of Natural Population Analysis:

                                       Natural Population
                Natural  -----------------------------------------------
    Atom  No    Charge         Core      Valence    Rydberg      Total
 -----------------------------------------------------------------------
      O    1   -1.43583      1.99992     7.32110    0.11480     9.43583
      H    2    0.64288      0.00000     0.33976    0.01735     0.35712
     Br    3   -0.82836     27.98821     7.69038    0.14977    35.82836
      H    4    0.62116      0.00000     0.35757    0.02127     0.37884
 =======================================================================
   * Total *   -1.00014     29.98813    15.70881    0.30320    46.00014

 Normal termination of Gaussian 16 at Fri Oct 15 15:36:20 2021.
