 Gaussian 16, Revision B.01,
 Gaussian 16:  ES64L-G16RevB.01 20-Dec-2017

 --------------------------------------------------------
 #p pop=NBO SP NoSymm mp2/gen Pseudo=read density=current
 --------------------------------------------------------

 -----
 title
 -----
 Symbolic Z-matrix:
 Charge = -1 Multiplicity = 1

                          Input orientation:
 ---------------------------------------------------------------------
 Center     Atomic      Atomic             Coordinates (Angstroms)
 Number     Number       Type             X           Y           Z
 ---------------------------------------------------------------------
      1          8           0        0.000000    0.000000    0.000000
      2          1           0        0.960482    0.000000    0.000000
      3         35           0       -0.656753   -3.183800    0.000000
      4          1           0       -0.242431   -1.175256    0.000000
 ---------------------------------------------------------------------

 SCF Done:  E(RHF) =  -491.620704189     A.U. after   12 cycles
 E2 =    -0.5297654489D+00 EUMP2 =    -0.49215046963797D+03

 Alpha  occ. eigenvalues --  -20.37034  -9.55889  -7.30701  -7.30615  -7.30610
 Alpha  occ. eigenvalues --   -2.85808  -2.85775  -2.85770  -2.85684  -2.85684
 Alpha  occ. eigenvalues --   -1.11065  -0.75575  -0.46385  -0.37381  -0.30092
 Alpha  occ. eigenvalues --   -0.17768  -0.17350  -0.17298
 Alpha virt. eigenvalues --    0.14106   0.17384   0.24704   0.25883   0.26316
 Alpha virt. eigenvalues --    0.28204   0.30557   0.31044   0.33316   0.35339
 Alpha virt. eigenvalues --    0.40474   0.41724   0.41901   0.46179   0.46781

 Mulliken charges:
               1
     1  O   -0.598308
     2  H    0.162497
     3  Br  -0.832065
     4  H    0.267876
 Sum of Mulliken charges =  -1.00000

 Dipole moment (field-independent basis, Debye):
    X=              3.4862    Y=             10.9579    Z=              0.0000  Tot=             11.4991
 Quadrupole moment (field-independent basis, Debye-Ang):
   XX=            -30.2343   YY=            -68.8401   ZZ=            -31.2858
   XY=             -7.3791   XZ=              0.0000   YZ=              0.0000

 Summary of Natural Population Analysis:

                                       Natural Population
                Natural  -----------------------------------------------
    Atom  No    Charge         Core      Valence    Rydberg      Total
 -----------------------------------------------------------------------
      O    1   -1.41467      1.99992     7.30718    0.10757     9.41467
      H    2    0.65078      0.00000     0.33407    0.01515     0.34922
     Br    3   -0.91276     27.98839     7.77081    0.15355    35.91276
      H    4    0.67663      0.00000     0.30193    0.02145     0.32337
 =======================================================================
   * Total *   -1.00002     29.98831    15.71399    0.29772    46.00002

 Normal termination of Gaussian 16 at Fri Oct 15 15:35:00 2021.
