 Gaussian 16, Revision B.01,
 Gaussian 16:  ES64L-G16RevB.01 20-Dec-2017

 --------------------------------------------------------
 #p pop=NBO SP NoSymm mp2/gen Pseudo=read density=current
 --------------------------------------------------------

 -----
 title
 -----
 Symbolic Z-matrix:
 Charge = -1 Multiplicity = 1

                          Input orientation:
 ---------------------------------------------------------------------
 Center     Atomic      Atomic             Coordinates (Angstroms)
 Number     Number       Type             X           Y           Z
 ---------------------------------------------------------------------
      1          8           0        0.000000    0.000000    0.000000
      2          1           0        0.960482    0.000000    0.000000
      3         35           0       -0.656753   -3.183800    0.000000
      4          1           0       -0.202026   -0.979380    0.000000
 ---------------------------------------------------------------------

 SCF Done:  E(RHF) =  -491.650718770     A.U. after   11 cycles
 E2 =    -0.5187701196D+00 EUMP2 =    -0.49216948888985D+03

 Alpha  occ. eigenvalues --  -20.38779  -9.54394  -7.29168  -7.29140  -7.29135
 Alpha  occ. eigenvalues --   -2.84269  -2.84260  -2.84256  -2.84232  -2.84232
 Alpha  occ. eigenvalues --   -1.16572  -0.73902  -0.52283  -0.41352  -0.33138
 Alpha  occ. eigenvalues --   -0.16530  -0.15995  -0.15952
 Alpha virt. eigenvalues --    0.13625   0.17429   0.24930   0.25961   0.26693
 Alpha virt. eigenvalues --    0.27966   0.30032   0.30216   0.33550   0.34728
 Alpha virt. eigenvalues --    0.39923   0.41047   0.41633   0.46201   0.47465

 Mulliken charges:
               1
     1  O   -0.543968
     2  H    0.167130
     3  Br  -0.923864
     4  H    0.300702
 Sum of Mulliken charges =  -1.00000

 Dipole moment (field-independent basis, Debye):
    X=              3.8356    Y=             12.2917    Z=             -0.0000  Tot=             12.8763
 Quadrupole moment (field-independent basis, Debye-Ang):
   XX=            -30.4730   YY=            -73.3510   ZZ=            -31.3428
   XY=             -8.2243   XZ=             -0.0000   YZ=              0.0000

 Summary of Natural Population Analysis:

                                       Natural Population
                Natural  -----------------------------------------------
    Atom  No    Charge         Core      Valence    Rydberg      Total
 -----------------------------------------------------------------------
      O    1   -1.39144      1.99992     7.28267    0.10886     9.39144
      H    2    0.66202      0.00000     0.33176    0.00622     0.33798
     Br    3   -0.96744     27.98854     7.82213    0.15678    35.96744
      H    4    0.69685      0.00000     0.28013    0.02302     0.30315
 =======================================================================
   * Total *   -1.00001     29.98845    15.71668    0.29488    46.00001

 Normal termination of Gaussian 16 at Fri Oct 15 15:33:42 2021.
