 Gaussian 16, Revision B.01,
 Gaussian 16:  ES64L-G16RevB.01 20-Dec-2017

 --------------------------------------------------------
 #p pop=NBO SP NoSymm mp2/gen Pseudo=read density=current
 --------------------------------------------------------

 -----
 title
 -----
 Symbolic Z-matrix:
 Charge = -1 Multiplicity = 1

                          Input orientation:
 ---------------------------------------------------------------------
 Center     Atomic      Atomic             Coordinates (Angstroms)
 Number     Number       Type             X           Y           Z
 ---------------------------------------------------------------------
      1          8           0        0.000000    0.000000    0.000000
      2          1           0        0.960482    0.000000    0.000000
      3         35           0       -0.656753   -3.183800    0.000000
      4          1           0       -0.222229   -1.077318    0.000000
 ---------------------------------------------------------------------

 SCF Done:  E(RHF) =  -491.638475436     A.U. after   11 cycles
 E2 =    -0.5242370503D+00 EUMP2 =    -0.49216271248620D+03

 Alpha  occ. eigenvalues --  -20.38185  -9.55031  -7.29820  -7.29769  -7.29764
 Alpha  occ. eigenvalues --   -2.84923  -2.84905  -2.84900  -2.84852  -2.84852
 Alpha  occ. eigenvalues --   -1.13717  -0.74626  -0.49211  -0.39486  -0.31750
 Alpha  occ. eigenvalues --   -0.17105  -0.16583  -0.16536
 Alpha virt. eigenvalues --    0.13836   0.17432   0.24835   0.25957   0.26541
 Alpha virt. eigenvalues --    0.28058   0.30270   0.30596   0.33447   0.35009
 Alpha virt. eigenvalues --    0.40185   0.41364   0.41793   0.46198   0.47220

 Mulliken charges:
               1
     1  O   -0.577872
     2  H    0.166132
     3  Br  -0.885162
     4  H    0.296902
 Sum of Mulliken charges =  -1.00000

 Dipole moment (field-independent basis, Debye):
    X=              3.6787    Y=             11.7021    Z=              0.0000  Tot=             12.2667
 Quadrupole moment (field-independent basis, Debye-Ang):
   XX=            -30.3836   YY=            -71.3759   ZZ=            -31.3326
   XY=             -7.8531   XZ=             -0.0000   YZ=             -0.0000

 Summary of Natural Population Analysis:

                                       Natural Population
                Natural  -----------------------------------------------
    Atom  No    Charge         Core      Valence    Rydberg      Total
 -----------------------------------------------------------------------
      O    1   -1.40936      1.99992     7.29688    0.11256     9.40936
      H    2    0.66111      0.00000     0.33241    0.00648     0.33889
     Br    3   -0.94472     27.98848     7.80094    0.15530    35.94472
      H    4    0.69293      0.00000     0.28428    0.02279     0.30707
 =======================================================================
   * Total *   -1.00004     29.98840    15.71452    0.29713    46.00004

 Normal termination of Gaussian 16 at Fri Oct 15 15:34:20 2021.
