 Gaussian 16, Revision B.01,
 Gaussian 16:  ES64L-G16RevB.01 20-Dec-2017

 --------------------------------------------------------
 #p pop=NBO SP NoSymm mp2/gen Pseudo=read density=current
 --------------------------------------------------------

 -----
 title
 -----
 Symbolic Z-matrix:
 Charge = -1 Multiplicity = 1

                          Input orientation:
 ---------------------------------------------------------------------
 Center     Atomic      Atomic             Coordinates (Angstroms)
 Number     Number       Type             X           Y           Z
 ---------------------------------------------------------------------
      1          8           0        0.000000    0.000000    0.000000
      2          1           0        0.960482    0.000000    0.000000
      3         35           0       -0.656753   -3.183800    0.000000
      4          1           0       -0.252533   -1.224225    0.000000
 ---------------------------------------------------------------------

 SCF Done:  E(RHF) =  -491.611407420     A.U. after   12 cycles
 E2 =    -0.5324406013D+00 EUMP2 =    -0.49214384802092D+03

 Alpha  occ. eigenvalues --  -20.36252  -9.56412  -7.31238  -7.31130  -7.31125
 Alpha  occ. eigenvalues --   -2.86348  -2.86305  -2.86300  -2.86190  -2.86190
 Alpha  occ. eigenvalues --   -1.09758  -0.76146  -0.45040  -0.36309  -0.29149
 Alpha  occ. eigenvalues --   -0.18113  -0.17807  -0.17753
 Alpha virt. eigenvalues --    0.14265   0.17338   0.24615   0.25815   0.26179
 Alpha virt. eigenvalues --    0.28300   0.30743   0.31296   0.33230   0.35524
 Alpha virt. eigenvalues --    0.40618   0.41908   0.41912   0.46150   0.46411

 Mulliken charges:
               1
     1  O   -0.611012
     2  H    0.159219
     3  Br  -0.799415
     4  H    0.251208
 Sum of Mulliken charges =  -1.00000

 Dipole moment (field-independent basis, Debye):
    X=              3.3766    Y=             10.5287    Z=              0.0000  Tot=             11.0569
 Quadrupole moment (field-independent basis, Debye-Ang):
   XX=            -30.1391   YY=            -67.3718   ZZ=            -31.2510
   XY=             -7.1048   XZ=             -0.0000   YZ=             -0.0000

 Summary of Natural Population Analysis:

                                       Natural Population
                Natural  -----------------------------------------------
    Atom  No    Charge         Core      Valence    Rydberg      Total
 -----------------------------------------------------------------------
      O    1   -1.41936      1.99992     7.31023    0.10922     9.41936
      H    2    0.64912      0.00000     0.33531    0.01556     0.35088
     Br    3   -0.89383     27.98834     7.75278    0.15271    35.89383
      H    4    0.66402      0.00000     0.31464    0.02134     0.33598
 =======================================================================
   * Total *   -1.00005     29.98826    15.71296    0.29882    46.00005

 Normal termination of Gaussian 16 at Fri Oct 15 15:35:20 2021.
