 Gaussian 16, Revision B.01,
 Gaussian 16:  ES64L-G16RevB.01 20-Dec-2017

 --------------------------------------------------------
 #p pop=NBO SP NoSymm mp2/gen Pseudo=read density=current
 --------------------------------------------------------

 -----
 title
 -----
 Symbolic Z-matrix:
 Charge = -1 Multiplicity = 1

                          Input orientation:
 ---------------------------------------------------------------------
 Center     Atomic      Atomic             Coordinates (Angstroms)
 Number     Number       Type             X           Y           Z
 ---------------------------------------------------------------------
      1          8           0        0.000000    0.000000    0.000000
      2         17           0        1.697002    0.000000    0.000000
      3         53           0       -0.719526   -3.249785    0.000000
      4          1           0       -0.209389   -0.945721    0.000000
 ---------------------------------------------------------------------

 SCF Done:  E(RHF) =  -829.686720138     A.U. after   13 cycles
 E2 =    -0.6806424844D+00 EUMP2 =    -0.83036736262213D+03

 Alpha  occ. eigenvalues -- -104.74500 -20.47940 -10.46435  -7.93149  -7.92879
 Alpha  occ. eigenvalues --   -7.92869  -7.47628  -5.30204  -5.30149  -5.30146
 Alpha  occ. eigenvalues --   -2.02960  -2.02925  -2.02922  -2.02864  -2.02864
 Alpha  occ. eigenvalues --   -1.25075  -0.91328  -0.64214  -0.56026  -0.45697
 Alpha  occ. eigenvalues --   -0.44797  -0.32279  -0.29688  -0.16121  -0.15147
 Alpha  occ. eigenvalues --   -0.15138
 Alpha virt. eigenvalues --    0.15184   0.17487   0.21550   0.22585   0.24039
 Alpha virt. eigenvalues --    0.25013   0.25282   0.27099   0.29503   0.30490
 Alpha virt. eigenvalues --    0.30553   0.31207   0.34601   0.37477   0.37936

 Mulliken charges:
               1
     1  O   -0.467154
     2  Cl   0.060461
     3  I   -0.858336
     4  H    0.265028
 Sum of Mulliken charges =  -1.00000

 Dipole moment (field-independent basis, Debye):
    X=              2.1613    Y=             11.9447    Z=             -0.0000  Tot=             12.1387
 Quadrupole moment (field-independent basis, Debye-Ang):
   XX=            -55.2668   YY=            -95.0387   ZZ=            -53.3356
   XY=             -9.6590   XZ=             -0.0000   YZ=              0.0000

 Summary of Natural Population Analysis:

                                       Natural Population
                Natural  -----------------------------------------------
    Atom  No    Charge         Core      Valence    Rydberg      Total
 -----------------------------------------------------------------------
      O    1   -0.74314      1.99968     6.63482    0.10864     8.74314
     Cl    2    0.16496      9.99983     6.69417    0.14104    16.83504
      I    3   -0.89531     45.98345     7.74519    0.16667    53.89531
      H    4    0.47348      0.00000     0.49684    0.02968     0.52652
 =======================================================================
   * Total *   -1.00000     57.98295    21.57102    0.44602    80.00000

 Normal termination of Gaussian 16 at Fri Nov  5 16:37:29 2021.
