 Gaussian 16, Revision B.01,
 Gaussian 16:  ES64L-G16RevB.01 20-Dec-2017

 -----------------------------------------------------
 #p opt=(z-matrix) mp2/gen Pseudo=read density=current
 -----------------------------------------------------

 -----
 title
 -----
 Symbolic Z-matrix:
 Charge = -1 Multiplicity = 1

 SCF Done:  E(RHF) =  -829.664868601     A.U. after   14 cycles
 E2 =    -0.6905308763D+00 EUMP2 =    -0.83035539947731D+03
 SCF Done:  E(RHF) =  -829.677583397     A.U. after   12 cycles
 E2 =    -0.6860729914D+00 EUMP2 =    -0.83036365638871D+03
 SCF Done:  E(RHF) =  -829.687476610     A.U. after   13 cycles
 E2 =    -0.6797908219D+00 EUMP2 =    -0.83036726743206D+03
 SCF Done:  E(RHF) =  -829.686689153     A.U. after   10 cycles
 E2 =    -0.6806733402D+00 EUMP2 =    -0.83036736249278D+03
 SCF Done:  E(RHF) =  -829.686720138     A.U. after    7 cycles
 E2 =    -0.6806424788D+00 EUMP2 =    -0.83036736261651D+03
 Optimization completed.
    -- Stationary point found.

                         Standard orientation:
 ---------------------------------------------------------------------
 Center     Atomic      Atomic             Coordinates (Angstroms)
 Number     Number       Type             X           Y           Z
 ---------------------------------------------------------------------
      1          8           0       -0.976269    1.966498    0.000000
      2         17           0        0.500136    2.803182    0.000000
      3         53           0       -0.000000   -1.215595    0.000000
      4          1           0       -0.692165    1.040477    0.000000
 ---------------------------------------------------------------------

 The electronic state is 1-A'.
 Alpha  occ. eigenvalues -- -104.74500 -20.47940 -10.46435  -7.93149  -7.92879
 Alpha  occ. eigenvalues --   -7.92869  -7.47628  -5.30204  -5.30149  -5.30146
 Alpha  occ. eigenvalues --   -2.02960  -2.02925  -2.02922  -2.02864  -2.02864
 Alpha  occ. eigenvalues --   -1.25075  -0.91328  -0.64214  -0.56026  -0.45697
 Alpha  occ. eigenvalues --   -0.44797  -0.32279  -0.29688  -0.16121  -0.15147
 Alpha  occ. eigenvalues --   -0.15138
 Alpha virt. eigenvalues --    0.15184   0.17487   0.21550   0.22585   0.24039
 Alpha virt. eigenvalues --    0.25013   0.25282   0.27099   0.29503   0.30490
 Alpha virt. eigenvalues --    0.30553   0.31207   0.34601   0.37477   0.37936

 Mulliken charges:
               1
     1  O   -0.467154
     2  Cl   0.060461
     3  I   -0.858336
     4  H    0.265028
 Sum of Mulliken charges =  -1.00000

 Dipole moment (field-independent basis, Debye):
    X=              0.6804    Y=              2.0121    Z=              0.0000  Tot=              2.1241
 Quadrupole moment (field-independent basis, Debye-Ang):
   XX=            -53.3990   YY=            -67.1690   ZZ=            -53.3356
   XY=              2.2492   XZ=              0.0000   YZ=              0.0000

 Normal termination of Gaussian 16 at Fri Nov  5 16:20:54 2021.
