 Gaussian 16, Revision B.01,
 Gaussian 16:  ES64L-G16RevB.01 20-Dec-2017

 --------------------------------------------------------
 #p pop=NBO SP NoSymm mp2/gen Pseudo=read density=current
 --------------------------------------------------------

 -----
 title
 -----
 Symbolic Z-matrix:
 Charge = -1 Multiplicity = 1

                          Input orientation:
 ---------------------------------------------------------------------
 Center     Atomic      Atomic             Coordinates (Angstroms)
 Number     Number       Type             X           Y           Z
 ---------------------------------------------------------------------
      1          8           0        0.000000    0.000000    0.000000
      2         17           0        1.697052    0.000000    0.000000
      3         53           0       -0.719526   -3.249785    0.000000
      4          1           0       -0.208593   -0.942122    0.084421
 ---------------------------------------------------------------------

 SCF Done:  E(RHF) =  -760.758892761     A.U. after   18 cycles
 E2 =    -0.7445745321D+00 EUMP2 =    -0.76150346729276D+03

 Alpha  occ. eigenvalues -- -104.75116 -20.48946 -10.47047  -8.79043  -7.93762
 Alpha  occ. eigenvalues --   -7.93484  -7.93473  -6.49139  -6.29859  -6.29274
 Alpha  occ. eigenvalues --   -2.04645  -1.99516  -1.98854  -1.97773  -1.97718
 Alpha  occ. eigenvalues --   -1.26136  -0.92073  -0.85481  -0.57823  -0.46520
 Alpha  occ. eigenvalues --   -0.45623  -0.32982  -0.30340  -0.23389  -0.16016
 Alpha  occ. eigenvalues --   -0.15835
 Alpha virt. eigenvalues --    0.15210   0.17379   0.21712   0.22691   0.24320
 Alpha virt. eigenvalues --    0.26049   0.26445   0.26980   0.29536   0.30235
 Alpha virt. eigenvalues --    0.30427   0.31364   0.34257   0.36559   0.37278

 Mulliken charges:
               1
     1  O    0.240883
     2  Cl   0.032834
     3  I   -4.637705
     4  H    3.363989
 Sum of Mulliken charges =  -1.00000

 Dipole moment (field-independent basis, Debye):
    X=              2.1896    Y=             11.3992    Z=              0.0017  Tot=             11.6076
 Quadrupole moment (field-independent basis, Debye-Ang):
   XX=            -80.4157   YY=           -114.3450   ZZ=            -79.0046
   XY=             -8.2976   XZ=              0.0242   YZ=              0.2048

 Summary of Natural Population Analysis:

                                       Natural Population
                Natural  -----------------------------------------------
    Atom  No    Charge         Core      Valence    Rydberg      Total
 -----------------------------------------------------------------------
      O    1   -0.77365      1.99967     6.61884    0.15514     8.77365
     Cl    2    0.16116      9.99982     6.68305    0.15597    16.83884
      I    3   -0.75883     45.82519     7.56526    0.36838    53.75883
      H    4    0.37133      0.00000     0.52606    0.10261     0.62867
 =======================================================================
   * Total *   -1.00000     57.82468    21.39321    0.78211    80.00000

 Normal termination of Gaussian 16 at Fri Nov  5 16:37:49 2021.
