 Gaussian 16, Revision B.01,
 Gaussian 16:  ES64L-G16RevB.01 20-Dec-2017

 ----------------------------------------------------
 #p pop=NBO SP NoSymm mp2/aug-cc-pvtz density=current
 ----------------------------------------------------

 -----
 title
 -----
 Symbolic Z-matrix:
 Charge = -1 Multiplicity = 1

                          Input orientation:
 ---------------------------------------------------------------------
 Center     Atomic      Atomic             Coordinates (Angstroms)
 Number     Number       Type             X           Y           Z
 ---------------------------------------------------------------------
      1          8           0        0.000000    0.000000    0.000000
      2         17           0        2.904676    0.000000    0.000000
      3         17           0       -0.393687    1.636049    0.000000
      4          1           0        1.008000    0.000000    0.177738
 ---------------------------------------------------------------------

 SCF Done:  E(RHF) =  -994.522783231     A.U. after   13 cycles
 E2 =    -0.6678580871D+00 EUMP2 =    -0.99519064131849D+03

 Alpha  occ. eigenvalues -- -104.72338-104.54792 -20.45056 -10.44292 -10.27278
 Alpha  occ. eigenvalues --   -7.91009  -7.90749  -7.90740  -7.73895  -7.73878
 Alpha  occ. eigenvalues --   -7.73877  -1.21775  -0.88688  -0.78740  -0.52908
 Alpha  occ. eigenvalues --   -0.43303  -0.42491  -0.30091  -0.27217  -0.20369
 Alpha  occ. eigenvalues --   -0.19580  -0.19551
 Alpha virt. eigenvalues --    0.16091   0.18614   0.22580   0.23490   0.25853
 Alpha virt. eigenvalues --    0.27291   0.27597   0.29568   0.31205   0.32154
 Alpha virt. eigenvalues --    0.33852   0.35005   0.39176   0.44566   0.46403

 Mulliken charges:
               1
     1  O   -0.490673
     2  Cl  -0.837965
     3  Cl   0.040704
     4  H    0.287934
 Sum of Mulliken charges =  -1.00000

 Dipole moment (field-independent basis, Debye):
    X=             -9.6524    Y=             -0.7653    Z=              0.1319  Tot=              9.6836
 Quadrupole moment (field-independent basis, Debye-Ang):
   XX=            -68.5536   YY=            -37.0552   ZZ=            -36.6156
   XY=              0.4819   XZ=              0.0898   YZ=             -0.0561

 Summary of Natural Population Analysis:

                                       Natural Population
                Natural  -----------------------------------------------
    Atom  No    Charge         Core      Valence    Rydberg      Total
 -----------------------------------------------------------------------
      O    1   -0.76618      1.99969     6.65613    0.11036     8.76618
     Cl    2   -0.86041     10.00003     7.71454    0.14585    17.86041
     Cl    3    0.15145      9.99981     6.70316    0.14558    16.84855
      H    4    0.47514      0.00000     0.49758    0.02728     0.52486
 =======================================================================
   * Total *   -1.00000     21.99953    21.57141    0.42907    44.00000

 Normal termination of Gaussian 16 at Wed Sep 22 16:31:23 2021.
