 Gaussian 16, Revision B.01,
 Gaussian 16:  ES64L-G16RevB.01 20-Dec-2017

 -------------------------------------
 #p SP mp2/aug-cc-pvtz density=current
 -------------------------------------

 -----
 title
 -----
 Symbolic Z-matrix:
 Charge = -1 Multiplicity = 1

                         Standard orientation:
 ---------------------------------------------------------------------
 Center     Atomic      Atomic             Coordinates (Angstroms)
 Number     Number       Type             X           Y           Z
 ---------------------------------------------------------------------
      1          8           0       -1.028255    0.628171   -0.000000
      2         17           0        1.875938    0.681119    0.000000
      3         17           0       -1.392053   -1.014782   -0.000000
      4          1           0       -0.000000    0.646917    0.000000
 ---------------------------------------------------------------------

 SCF Done:  E(RHF) =  -994.523881392     A.U. after   13 cycles
 E2 =    -0.6682443436D+00 EUMP2 =    -0.99519212573510D+03

 The electronic state is 1-A'.
 Alpha  occ. eigenvalues -- -104.72204-104.54993 -20.44821 -10.44158 -10.27484
 Alpha  occ. eigenvalues --   -7.90874  -7.90616  -7.90607  -7.74101  -7.74083
 Alpha  occ. eigenvalues --   -7.74082  -1.21497  -0.88528  -0.79005  -0.52672
 Alpha  occ. eigenvalues --   -0.43110  -0.42308  -0.29979  -0.27057  -0.20595
 Alpha  occ. eigenvalues --   -0.19782  -0.19778
 Alpha virt. eigenvalues --    0.16128   0.18670   0.22582   0.23557   0.25819
 Alpha virt. eigenvalues --    0.27266   0.27486   0.29641   0.31077   0.32744
 Alpha virt. eigenvalues --    0.33745   0.35026   0.38581   0.45309   0.46288

 Mulliken charges:
               1
     1  O   -0.499976
     2  Cl  -0.829520
     3  Cl   0.037576
     4  H    0.291920
 Sum of Mulliken charges =  -1.00000

 Dipole moment (field-independent basis, Debye):
    X=             -4.5889    Y=             -2.4045    Z=             -0.0000  Tot=              5.1807
 Quadrupole moment (field-independent basis, Debye-Ang):
   XX=            -53.5325   YY=            -38.2288   ZZ=            -36.6607
   XY=             -4.5626   XZ=             -0.0000   YZ=             -0.0000

 Normal termination of Gaussian 16 at Wed Sep 15 14:18:35 2021.
