 Gaussian 16, Revision B.01,
 Gaussian 16:  ES64L-G16RevB.01 20-Dec-2017

 --------------------------------------------
 #p SP NoSymm mp2/aug-cc-pvtz density=current
 --------------------------------------------

 -----
 title
 -----
 Symbolic Z-matrix:
 Charge = -1 Multiplicity = 1

                          Input orientation:
 ---------------------------------------------------------------------
 Center     Atomic      Atomic             Coordinates (Angstroms)
 Number     Number       Type             X           Y           Z
 ---------------------------------------------------------------------
      1          8           0        0.000000    0.000000    0.000000
      2         17           0        2.904676    0.000000    0.000000
      3         17           0       -0.393687    1.636049    0.000000
      4          1           0        0.694697    0.000000    0.694697
 ---------------------------------------------------------------------

 SCF Done:  E(RHF) =  -994.506456087     A.U. after   13 cycles
 E2 =    -0.6641708003D+00 EUMP2 =    -0.99517062688727D+03

 Alpha  occ. eigenvalues -- -104.73614-104.52571 -20.47448 -10.45583 -10.25021
 Alpha  occ. eigenvalues --   -7.92303  -7.92032  -7.92015  -7.71631  -7.71622
 Alpha  occ. eigenvalues --   -7.71620  -1.24642  -0.90209  -0.75972  -0.55331
 Alpha  occ. eigenvalues --   -0.45214  -0.44312  -0.31410  -0.28721  -0.17712
 Alpha  occ. eigenvalues --   -0.17335  -0.17157
 Alpha virt. eigenvalues --    0.15361   0.18011   0.22265   0.23200   0.26365
 Alpha virt. eigenvalues --    0.27538   0.28055   0.28810   0.29955   0.31860
 Alpha virt. eigenvalues --    0.32897   0.35146   0.40440   0.41399   0.45941

 Mulliken charges:
               1
     1  O   -0.382073
     2  Cl  -0.923903
     3  Cl   0.069896
     4  H    0.236080
 Sum of Mulliken charges =  -1.00000

 Dipole moment (field-independent basis, Debye):
    X=            -11.2205    Y=             -0.5768    Z=              0.6870  Tot=             11.2563
 Quadrupole moment (field-independent basis, Debye-Ang):
   XX=            -73.9756   YY=            -36.9239   ZZ=            -35.8286
   XY=              0.4888   XZ=              0.3747   YZ=             -0.2384

 Normal termination of Gaussian 16 at Thu Sep 16 15:38:29 2021.
