 Gaussian 16, Revision B.01,
 Gaussian 16:  ES64L-G16RevB.01 20-Dec-2017

 -------------------------------------------------
 #p opt=(z-matrix) mp2/aug-cc-pvtz density=current
 -------------------------------------------------

 -----
 title
 -----
 Symbolic Z-matrix:
 Charge = -1 Multiplicity = 1

 SCF Done:  E(RHF) =  -994.483095025     A.U. after   13 cycles
 E2 =    -0.6666535608D+00 EUMP2 =    -0.99514974858617D+03
 SCF Done:  E(RHF) =  -994.488690168     A.U. after   11 cycles
 E2 =    -0.6637594734D+00 EUMP2 =    -0.99515244964152D+03
 SCF Done:  E(RHF) =  -994.488830263     A.U. after    9 cycles
 E2 =    -0.6636254546D+00 EUMP2 =    -0.99515245571754D+03
 Optimization completed.
    -- Stationary point found.

                         Standard orientation:
 ---------------------------------------------------------------------
 Center     Atomic      Atomic             Coordinates (Angstroms)
 Number     Number       Type             X           Y           Z
 ---------------------------------------------------------------------
      1          8           0        0.669506    0.978414   -0.102050
      2         17           0        1.666831   -0.372939    0.002039
      3         17           0       -2.007854   -0.143712   -0.003454
      4          1           0        0.441344    0.955760    0.840444
 ---------------------------------------------------------------------

 The electronic state is 1-A.
 Alpha  occ. eigenvalues -- -104.74279-104.51003 -20.48920 -10.46275 -10.23437
 Alpha  occ. eigenvalues --   -7.92996  -7.92719  -7.92697  -7.70043  -7.70039
 Alpha  occ. eigenvalues --   -7.70036  -1.26462  -0.90867  -0.74199  -0.56711
 Alpha  occ. eigenvalues --   -0.46306  -0.45328  -0.32242  -0.29488  -0.15873
 Alpha  occ. eigenvalues --   -0.15758  -0.15470
 Alpha virt. eigenvalues --    0.14390   0.17586   0.21964   0.23233   0.26615
 Alpha virt. eigenvalues --    0.27024   0.28098   0.29310   0.29740   0.30616
 Alpha virt. eigenvalues --    0.31792   0.35461   0.39388   0.41884   0.44260

 Mulliken charges:
               1
     1  O   -0.341820
     2  Cl   0.071196
     3  Cl  -0.977174
     4  H    0.247798
 Sum of Mulliken charges =  -1.00000

 Dipole moment (field-independent basis, Debye):
    X=              8.1186    Y=              0.6958    Z=              1.1443  Tot=              8.2283
 Quadrupole moment (field-independent basis, Debye-Ang):
   XX=            -58.9628   YY=            -36.5663   ZZ=            -35.2823
   XY=             -2.5636   XZ=              0.6949   YZ=              1.5418

 Normal termination of Gaussian 16 at Thu Sep 16 14:58:26 2021.
