 Gaussian 16, Revision B.01,
 Gaussian 16:  ES64L-G16RevB.01 20-Dec-2017

 -------------------------------------------------
 #p opt=(z-matrix) mp2/aug-cc-pvtz density=current
 -------------------------------------------------

 -----
 title
 -----
 Symbolic Z-matrix:
 Charge = -1 Multiplicity = 1

 SCF Done:  E(RHF) =  -994.520825384     A.U. after   13 cycles
 E2 =    -0.6679922897D+00 EUMP2 =    -0.99518881767332D+03
 SCF Done:  E(RHF) =  -994.521237729     A.U. after    9 cycles
 E2 =    -0.6676250545D+00 EUMP2 =    -0.99518886278387D+03
 SCF Done:  E(RHF) =  -994.521437475     A.U. after    8 cycles
 E2 =    -0.6674315209D+00 EUMP2 =    -0.99518886899559D+03
 Optimization completed.
    -- Stationary point found.

                         Standard orientation:
 ---------------------------------------------------------------------
 Center     Atomic      Atomic             Coordinates (Angstroms)
 Number     Number       Type             X           Y           Z
 ---------------------------------------------------------------------
      1          8           0        0.680377    0.993222   -0.020616
      2         17           0        1.684414   -0.357011    0.000033
      3         17           0       -1.991381   -0.146342   -0.004934
      4          1           0       -0.224576    0.611228    0.248248
 ---------------------------------------------------------------------

 The electronic state is 1-A.
 Alpha  occ. eigenvalues -- -104.72485-104.54564 -20.45319 -10.44440 -10.27046
 Alpha  occ. eigenvalues --   -7.91158  -7.90897  -7.90886  -7.73661  -7.73645
 Alpha  occ. eigenvalues --   -7.73645  -1.22084  -0.88865  -0.78442  -0.53168
 Alpha  occ. eigenvalues --   -0.43518  -0.42694  -0.30220  -0.27393  -0.20107
 Alpha  occ. eigenvalues --   -0.19349  -0.19300
 Alpha virt. eigenvalues --    0.16042   0.18552   0.22572   0.23424   0.25896
 Alpha virt. eigenvalues --    0.27322   0.27709   0.29466   0.31317   0.31717
 Alpha virt. eigenvalues --    0.33938   0.34920   0.39690   0.43893   0.46430

 Mulliken charges:
               1
     1  O   -0.478416
     2  Cl   0.044194
     3  Cl  -0.847380
     4  H    0.281602
 Sum of Mulliken charges =  -1.00000

 Dipole moment (field-independent basis, Debye):
    X=              5.4627    Y=             -0.2367    Z=              0.2371  Tot=              5.4729
 Quadrupole moment (field-independent basis, Debye-Ang):
   XX=            -54.8514   YY=            -37.3555   ZZ=            -36.5690
   XY=             -2.7314   XZ=             -0.0250   YZ=              0.2348

 Normal termination of Gaussian 16 at Wed Sep 22 15:15:25 2021.
