 Gaussian 16, Revision B.01,
 Gaussian 16:  ES64L-G16RevB.01 20-Dec-2017

 ----------------------------------------------------
 #p pop=NBO SP NoSymm mp2/aug-cc-pvtz density=current
 ----------------------------------------------------

 -----
 title
 -----
 Symbolic Z-matrix:
 Charge = -1 Multiplicity = 1

                          Input orientation:
 ---------------------------------------------------------------------
 Center     Atomic      Atomic             Coordinates (Angstroms)
 Number     Number       Type             X           Y           Z
 ---------------------------------------------------------------------
      1          8           0        0.000000    0.000000    0.000000
      2         17           0        2.904676    0.000000    0.000000
      3         17           0       -0.393687    1.636049    0.000000
      4          1           0        0.812951    0.000000    0.569234
 ---------------------------------------------------------------------

 SCF Done:  E(RHF) =  -994.512267416     A.U. after   13 cycles
 E2 =    -0.6651092971D+00 EUMP2 =    -0.99517737671264D+03

 Alpha  occ. eigenvalues -- -104.73266-104.53249 -20.46757 -10.45229 -10.25709
 Alpha  occ. eigenvalues --   -7.91948  -7.91680  -7.91666  -7.72320  -7.72309
 Alpha  occ. eigenvalues --   -7.72308  -1.23809  -0.89803  -0.76785  -0.54635
 Alpha  occ. eigenvalues --   -0.44677  -0.43799  -0.31008  -0.28316  -0.18534
 Alpha  occ. eigenvalues --   -0.18019  -0.17881
 Alpha virt. eigenvalues --    0.15642   0.18195   0.22405   0.23218   0.26207
 Alpha virt. eigenvalues --    0.27467   0.28138   0.28858   0.30247   0.31896
 Alpha virt. eigenvalues --    0.33593   0.34864   0.40893   0.41404   0.46263

 Mulliken charges:
               1
     1  O   -0.406525
     2  Cl  -0.898496
     3  Cl   0.062630
     4  H    0.242391
 Sum of Mulliken charges =  -1.00000

 Dipole moment (field-independent basis, Debye):
    X=            -10.7269    Y=             -0.6246    Z=              0.5158  Tot=             10.7575
 Quadrupole moment (field-independent basis, Debye-Ang):
   XX=            -72.2974   YY=            -36.9461   ZZ=            -36.1323
   XY=              0.4760   XZ=              0.3296   YZ=             -0.1895

 Summary of Natural Population Analysis:

                                       Natural Population
                Natural  -----------------------------------------------
    Atom  No    Charge         Core      Valence    Rydberg      Total
 -----------------------------------------------------------------------
      O    1   -0.72559      1.99970     6.61561    0.11028     8.72559
     Cl    2   -0.93304     10.00008     7.78233    0.15063    17.93304
     Cl    3    0.15892      9.99983     6.69640    0.14485    16.84108
      H    4    0.49971      0.00000     0.47704    0.02326     0.50029
 =======================================================================
   * Total *   -1.00000     21.99961    21.57137    0.42902    44.00000

 Normal termination of Gaussian 16 at Wed Sep 22 16:32:41 2021.
