 Gaussian 16, Revision B.01,
 Gaussian 16:  ES64L-G16RevB.01 20-Dec-2017

 --------------------------------------------
 #p SP NoSymm mp2/aug-cc-pvtz density=current
 --------------------------------------------

 -----
 title
 -----
 Symbolic Z-matrix:
 Charge = -1 Multiplicity = 1

                          Input orientation:
 ---------------------------------------------------------------------
 Center     Atomic      Atomic             Coordinates (Angstroms)
 Number     Number       Type             X           Y           Z
 ---------------------------------------------------------------------
      1          8           0        0.000000    0.000000    0.000000
      2         17           0        2.904676    0.000000    0.000000
      3         17           0       -0.393687    1.636049    0.000000
      4          1           0        0.864780    0.000000    0.499281
 ---------------------------------------------------------------------

 SCF Done:  E(RHF) =  -994.514978212     A.U. after   13 cycles
 E2 =    -0.6656836984D+00 EUMP2 =    -0.99518066191059D+03

 Alpha  occ. eigenvalues -- -104.73070-104.53600 -20.46385 -10.45031 -10.26065
 Alpha  occ. eigenvalues --   -7.91749  -7.91483  -7.91470  -7.72678  -7.72665
 Alpha  occ. eigenvalues --   -7.72664  -1.23362  -0.89570  -0.77217  -0.54256
 Alpha  occ. eigenvalues --   -0.44382  -0.43516  -0.30795  -0.28087  -0.18960
 Alpha  occ. eigenvalues --   -0.18374  -0.18257
 Alpha virt. eigenvalues --    0.15767   0.18290   0.22468   0.23247   0.26120
 Alpha virt. eigenvalues --    0.27431   0.28070   0.28992   0.30481   0.31843
 Alpha virt. eigenvalues --    0.33878   0.34730   0.40757   0.41870   0.46357

 Mulliken charges:
               1
     1  O   -0.423291
     2  Cl  -0.885224
     3  Cl   0.058062
     4  H    0.250453
 Sum of Mulliken charges =  -1.00000

 Dipole moment (field-independent basis, Debye):
    X=            -10.4778    Y=             -0.6532    Z=              0.4322  Tot=             10.5070
 Quadrupole moment (field-independent basis, Debye-Ang):
   XX=            -71.4337   YY=            -36.9641   ZZ=            -36.2661
   XY=              0.4737   XZ=              0.2885   YZ=             -0.1640

 Normal termination of Gaussian 16 at Thu Sep 16 15:38:16 2021.
