 Gaussian 16, Revision B.01,
 Gaussian 16:  ES64L-G16RevB.01 20-Dec-2017

 -------------------------------------------------
 #p opt=(z-matrix) mp2/aug-cc-pvtz density=current
 -------------------------------------------------

 -----
 title
 -----
 Symbolic Z-matrix:
 Charge = -1 Multiplicity = 1

 SCF Done:  E(RHF) =  -994.492293120     A.U. after   13 cycles
 E2 =    -0.6663606492D+00 EUMP2 =    -0.99515865376959D+03
 SCF Done:  E(RHF) =  -994.497302770     A.U. after   11 cycles
 E2 =    -0.6636681258D+00 EUMP2 =    -0.99516097089562D+03
 SCF Done:  E(RHF) =  -994.497500346     A.U. after    9 cycles
 E2 =    -0.6634816623D+00 EUMP2 =    -0.99516098200836D+03
 Optimization completed.
    -- Stationary point found.

                         Standard orientation:
 ---------------------------------------------------------------------
 Center     Atomic      Atomic             Coordinates (Angstroms)
 Number     Number       Type             X           Y           Z
 ---------------------------------------------------------------------
      1          8           0        0.672649    0.983509   -0.084183
      2         17           0        1.672665   -0.367155    0.001373
      3         17           0       -2.002483   -0.145589   -0.007055
      4          1           0        0.225709    0.848588    0.770064
 ---------------------------------------------------------------------

 The electronic state is 1-A.
 Alpha  occ. eigenvalues -- -104.74007-104.51688 -20.48295 -10.45989 -10.24128
 Alpha  occ. eigenvalues --   -7.92709  -7.92435  -7.92416  -7.70736  -7.70729
 Alpha  occ. eigenvalues --   -7.70727  -1.25671  -0.90632  -0.74955  -0.56148
 Alpha  occ. eigenvalues --   -0.45849  -0.44914  -0.31902  -0.29176  -0.16661
 Alpha  occ. eigenvalues --   -0.16446  -0.16212
 Alpha virt. eigenvalues --    0.14886   0.17772   0.22080   0.23218   0.26530
 Alpha virt. eigenvalues --    0.27452   0.27879   0.29050   0.29787   0.31404
 Alpha virt. eigenvalues --    0.32093   0.35359   0.39753   0.41752   0.45183

 Mulliken charges:
               1
     1  O   -0.360159
     2  Cl   0.073580
     3  Cl  -0.955619
     4  H    0.242198
 Sum of Mulliken charges =  -1.00000

 Dipole moment (field-independent basis, Debye):
    X=              7.5287    Y=              0.4537    Z=              0.9855  Tot=              7.6065
 Quadrupole moment (field-independent basis, Debye-Ang):
   XX=            -58.2638   YY=            -36.9002   ZZ=            -35.5385
   XY=             -2.8107   XZ=              0.3013   YZ=              1.1774

 Normal termination of Gaussian 16 at Thu Sep 16 14:57:23 2021.
