 Gaussian 16, Revision B.01,
 Gaussian 16:  ES64L-G16RevB.01 20-Dec-2017

 -------------------------------------------------
 #p opt=(z-matrix) mp2/aug-cc-pvtz density=current
 -------------------------------------------------

 -----
 title
 -----
 Symbolic Z-matrix:
 Charge = -1 Multiplicity = 1

 SCF Done:  E(RHF) =  -994.522323834     A.U. after   13 cycles
 E2 =    -0.6653855395D+00 EUMP2 =    -0.99518770937392D+03
 SCF Done:  E(RHF) =  -994.521894691     A.U. after   12 cycles
 E2 =    -0.6669564673D+00 EUMP2 =    -0.99518885115812D+03
 SCF Done:  E(RHF) =  -994.521619339     A.U. after   10 cycles
 E2 =    -0.6672550476D+00 EUMP2 =    -0.99518887438662D+03
 SCF Done:  E(RHF) =  -994.521553132     A.U. after    9 cycles
 E2 =    -0.6673248747D+00 EUMP2 =    -0.99518887800719D+03
 Optimization completed.
    -- Stationary point found.

                         Standard orientation:
 ---------------------------------------------------------------------
 Center     Atomic      Atomic             Coordinates (Angstroms)
 Number     Number       Type             X           Y           Z
 ---------------------------------------------------------------------
      1          8           0        0.679675    0.990462   -0.020626
      2         17           0        1.691362   -0.355528    0.000033
      3         17           0       -1.997947   -0.146462   -0.004921
      4          1           0       -0.225471    0.610135    0.248109
 ---------------------------------------------------------------------

 The electronic state is 1-A.
 Alpha  occ. eigenvalues -- -104.72539-104.54557 -20.45364 -10.44491 -10.27037
 Alpha  occ. eigenvalues --   -7.91208  -7.90947  -7.90937  -7.73652  -7.73636
 Alpha  occ. eigenvalues --   -7.73636  -1.22071  -0.88932  -0.78418  -0.53194
 Alpha  occ. eigenvalues --   -0.43532  -0.42696  -0.30267  -0.27451  -0.20093
 Alpha  occ. eigenvalues --   -0.19337  -0.19288
 Alpha virt. eigenvalues --    0.16034   0.18533   0.22578   0.23405   0.25880
 Alpha virt. eigenvalues --    0.27312   0.27704   0.29408   0.31316   0.31721
 Alpha virt. eigenvalues --    0.33922   0.34908   0.39691   0.43865   0.46403

 Mulliken charges:
               1
     1  O   -0.478017
     2  Cl   0.044551
     3  Cl  -0.848412
     4  H    0.281878
 Sum of Mulliken charges =  -1.00000

 Dipole moment (field-independent basis, Debye):
    X=              5.5000    Y=             -0.2346    Z=              0.2380  Tot=              5.5101
 Quadrupole moment (field-independent basis, Debye-Ang):
   XX=            -54.9551   YY=            -37.3577   ZZ=            -36.5733
   XY=             -2.7390   XZ=             -0.0260   YZ=              0.2345

 Normal termination of Gaussian 16 at Wed Sep 15 12:01:35 2021.
