 Gaussian 16, Revision B.01,
 Gaussian 16:  ES64L-G16RevB.01 20-Dec-2017

 -------------------------------------------------------
 #p opt=(z-matrix,tight) mp2/aug-cc-pvtz density=current
 -------------------------------------------------------

 -----
 title
 -----
 Symbolic Z-matrix:
 Charge = -1 Multiplicity = 1

 SCF Done:  E(RHF) =  -994.522439960     A.U. after   13 cycles
 E2 =    -0.6653030128D+00 EUMP2 =    -0.99518774297301D+03
 SCF Done:  E(RHF) =  -994.522763759     A.U. after    9 cycles
 E2 =    -0.6650084458D+00 EUMP2 =    -0.99518777220513D+03
 SCF Done:  E(RHF) =  -994.522883425     A.U. after    8 cycles
 E2 =    -0.6648913922D+00 EUMP2 =    -0.99518777481738D+03
 Optimization completed.
    -- Stationary point found.

                         Standard orientation:
 ---------------------------------------------------------------------
 Center     Atomic      Atomic             Coordinates (Angstroms)
 Number     Number       Type             X           Y           Z
 ---------------------------------------------------------------------
      1          8           0        0.745438    0.979333   -0.020150
      2         17           0        1.772187   -0.356564   -0.000377
      3         17           0       -2.114399   -0.138753   -0.004661
      4          1           0       -0.145904    0.585725    0.246848
 ---------------------------------------------------------------------

 The electronic state is 1-A.
 Alpha  occ. eigenvalues -- -104.73505-104.54221 -20.46805 -10.45457 -10.26653
 Alpha  occ. eigenvalues --   -7.92175  -7.91909  -7.91898  -7.73266  -7.73255
 Alpha  occ. eigenvalues --   -7.73255  -1.23337  -0.89925  -0.77665  -0.54280
 Alpha  occ. eigenvalues --   -0.44645  -0.43775  -0.31149  -0.28476  -0.19587
 Alpha  occ. eigenvalues --   -0.18845  -0.18819
 Alpha virt. eigenvalues --    0.15851   0.18211   0.22502   0.23079   0.25873
 Alpha virt. eigenvalues --    0.27296   0.27730   0.28621   0.31146   0.31588
 Alpha virt. eigenvalues --    0.33376   0.34715   0.39527   0.43127   0.45755

 Mulliken charges:
               1
     1  O   -0.463681
     2  Cl   0.051723
     3  Cl  -0.881981
     4  H    0.293939
 Sum of Mulliken charges =  -1.00000

 Dipole moment (field-independent basis, Debye):
    X=              6.3206    Y=             -0.1991    Z=              0.2594  Tot=              6.3290
 Quadrupole moment (field-independent basis, Debye-Ang):
   XX=            -57.3740   YY=            -37.3416   ZZ=            -36.6659
   XY=             -2.7936   XZ=             -0.0325   YZ=              0.2147

 Normal termination of Gaussian 16 at Mon Sep 13 14:40:43 2021.
