 Gaussian 16, Revision B.01,
 Gaussian 16:  ES64L-G16RevB.01 20-Dec-2017

 -------------------------------------------------
 #p opt=(z-matrix) mp2/aug-cc-pvtz density=current
 -------------------------------------------------

 -----
 title
 -----
 Symbolic Z-matrix:
 Charge = -1 Multiplicity = 1

 SCF Done:  E(RHF) =  -994.522323834     A.U. after   13 cycles
 E2 =    -0.6653855395D+00 EUMP2 =    -0.99518770937392D+03
 SCF Done:  E(RHF) =  -994.522640646     A.U. after    9 cycles
 E2 =    -0.6650968104D+00 EUMP2 =    -0.99518773745628D+03
 SCF Done:  E(RHF) =  -994.522758660     A.U. after    8 cycles
 E2 =    -0.6649813301D+00 EUMP2 =    -0.99518773999054D+03
 Optimization completed.
    -- Stationary point found.

                         Standard orientation:
 ---------------------------------------------------------------------
 Center     Atomic      Atomic             Coordinates (Angstroms)
 Number     Number       Type             X           Y           Z
 ---------------------------------------------------------------------
      1          8           0        0.762552    1.003200   -0.021041
      2         17           0        1.737352   -0.371044    0.000033
      3         17           0       -2.087760   -0.138940   -0.004583
      4          1           0       -0.143490    0.644129    0.245681
 ---------------------------------------------------------------------

 The electronic state is 1-A.
 Alpha  occ. eigenvalues -- -104.73396-104.54204 -20.46714 -10.45346 -10.26638
 Alpha  occ. eigenvalues --   -7.92063  -7.91796  -7.91786  -7.73251  -7.73240
 Alpha  occ. eigenvalues --   -7.73239  -1.23248  -0.89810  -0.77661  -0.54198
 Alpha  occ. eigenvalues --   -0.44552  -0.43701  -0.31020  -0.28368  -0.19584
 Alpha  occ. eigenvalues --   -0.18831  -0.18810
 Alpha virt. eigenvalues --    0.15899   0.18211   0.22509   0.23167   0.26037
 Alpha virt. eigenvalues --    0.27352   0.27755   0.28656   0.31071   0.31423
 Alpha virt. eigenvalues --    0.33472   0.34717   0.39558   0.43226   0.45834

 Mulliken charges:
               1
     1  O   -0.468394
     2  Cl   0.059015
     3  Cl  -0.881497
     4  H    0.290876
 Sum of Mulliken charges =  -1.00000

 Dipole moment (field-independent basis, Debye):
    X=              6.1970    Y=             -0.1853    Z=              0.2593  Tot=              6.2052
 Quadrupole moment (field-independent basis, Debye-Ang):
   XX=            -56.9976   YY=            -37.2769   ZZ=            -36.6686
   XY=             -2.8399   XZ=             -0.0329   YZ=              0.2468

 Normal termination of Gaussian 16 at Wed Sep 15 13:41:01 2021.
