 Gaussian 16, Revision B.01,
 Gaussian 16:  ES64L-G16RevB.01 20-Dec-2017

 ----------------------------------------------------
 #p pop=NBO SP NoSymm mp2/aug-cc-pvtz density=current
 ----------------------------------------------------

 -----
 title
 -----
 Symbolic Z-matrix:
 Charge = -1 Multiplicity = 1

                          Input orientation:
 ---------------------------------------------------------------------
 Center     Atomic      Atomic             Coordinates (Angstroms)
 Number     Number       Type             X           Y           Z
 ---------------------------------------------------------------------
      1          8           0        0.000000    0.000000    0.000000
      2         17           0        2.904676    0.000000    0.000000
      3         17           0       -0.393687    1.636049    0.000000
      4          1           0        1.023759    0.000000    0.089567
 ---------------------------------------------------------------------

 SCF Done:  E(RHF) =  -994.523575430     A.U. after   13 cycles
 E2 =    -0.6681733766D+00 EUMP2 =    -0.99519174880668D+03

 Alpha  occ. eigenvalues -- -104.72234-104.54947 -20.44877 -10.44187 -10.27437
 Alpha  occ. eigenvalues --   -7.90904  -7.90646  -7.90636  -7.74054  -7.74036
 Alpha  occ. eigenvalues --   -7.74035  -1.21554  -0.88561  -0.78943  -0.52718
 Alpha  occ. eigenvalues --   -0.43153  -0.42349  -0.30003  -0.27092  -0.20542
 Alpha  occ. eigenvalues --   -0.19736  -0.19723
 Alpha virt. eigenvalues --    0.16120   0.18657   0.22582   0.23540   0.25827
 Alpha virt. eigenvalues --    0.27271   0.27515   0.29628   0.31112   0.32568
 Alpha virt. eigenvalues --    0.33781   0.35030   0.38747   0.45093   0.46340

 Mulliken charges:
               1
     1  O   -0.498003
     2  Cl  -0.831432
     3  Cl   0.038300
     4  H    0.291135
 Sum of Mulliken charges =  -1.00000

 Dipole moment (field-independent basis, Debye):
    X=             -9.5464    Y=             -0.7818    Z=              0.0652  Tot=              9.5786
 Quadrupole moment (field-independent basis, Debye-Ang):
   XX=            -68.1874   YY=            -37.0718   ZZ=            -36.6493
   XY=              0.4848   XZ=              0.0440   YZ=             -0.0282

 Summary of Natural Population Analysis:

                                       Natural Population
                Natural  -----------------------------------------------
    Atom  No    Charge         Core      Valence    Rydberg      Total
 -----------------------------------------------------------------------
      O    1   -0.76923      1.99969     6.65922    0.11032     8.76923
     Cl    2   -0.85244     10.00002     7.70698    0.14545    17.85244
     Cl    3    0.15048      9.99981     6.70396    0.14575    16.84952
      H    4    0.47120      0.00000     0.50129    0.02752     0.52880
 =======================================================================
   * Total *   -1.00000     21.99952    21.57144    0.42904    44.00000

 Normal termination of Gaussian 16 at Wed Sep 22 16:31:07 2021.
