 Gaussian 16, Revision B.01,
 Gaussian 16:  ES64L-G16RevB.01 20-Dec-2017

 -------------------------------------------------
 #p opt=(z-matrix) mp2/aug-cc-pvtz density=current
 -------------------------------------------------

 -----
 title
 -----
 Symbolic Z-matrix:
 Charge = -1 Multiplicity = 1

 SCF Done:  E(RHF) =  -994.523881421     A.U. after   13 cycles
 E2 =    -0.6682443141D+00 EUMP2 =    -0.99519212573550D+03
 Optimization completed.
    -- Stationary point found.
 SCF Done:  E(RHF) =  -994.523532854     A.U. after   11 cycles
 E2 =    -0.6682153472D+00 EUMP2 =    -0.99519174820138D+03
 SCF Done:  E(RHF) =  -994.523575419     A.U. after    7 cycles
 E2 =    -0.6681733818D+00 EUMP2 =    -0.99519174880125D+03
 Optimization completed.
 SCF Done:  E(RHF) =  -994.522545775     A.U. after   11 cycles
 E2 =    -0.6680878242D+00 EUMP2 =    -0.99519063359888D+03
 SCF Done:  E(RHF) =  -994.522783086     A.U. after    8 cycles
 E2 =    -0.6678582249D+00 EUMP2 =    -0.99519064131136D+03
 SCF Done:  E(RHF) =  -994.521135374     A.U. after   11 cycles
 E2 =    -0.6677198877D+00 EUMP2 =    -0.99518885526192D+03
 SCF Done:  E(RHF) =  -994.521455180     A.U. after    9 cycles
 E2 =    -0.6674137674D+00 EUMP2 =    -0.99518886894784D+03
 SCF Done:  E(RHF) =  -994.519281952     A.U. after   12 cycles
 E2 =    -0.6672301622D+00 EUMP2 =    -0.99518651211430D+03
 SCF Done:  E(RHF) =  -994.519668688     A.U. after    9 cycles
 E2 =    -0.6668638749D+00 EUMP2 =    -0.99518653256288D+03
 SCF Done:  E(RHF) =  -994.517083383     A.U. after   12 cycles
 E2 =    -0.6666465429D+00 EUMP2 =    -0.99518372992560D+03
 E2 =    -0.6662619007D+00 EUMP2 =    -0.99518375413965D+03
 E2 =    -0.6662912574D+00 EUMP2 =    -0.99518375430975D+03
 E2 =    -0.6660555008D+00 EUMP2 =    -0.99518063281061D+03
 E2 =    -0.6656542542D+00 EUMP2 =    -0.99518066173416D+03
 SCF Done:  E(RHF) =  -994.514977720     A.U. after    7 cycles
 E2 =    -0.6656842066D+00 EUMP2 =    -0.99518066192686D+03
 SCF Done:  E(RHF) =  -994.511901787     A.U. after   11 cycles
 E2 =    -0.6654483634D+00 EUMP2 =    -0.99517735015052D+03
 SCF Done:  E(RHF) =  -994.512292660     A.U. after    9 cycles
 E2 =    -0.6650839200D+00 EUMP2 =    -0.99517737658031D+03
 SCF Done:  E(RHF) =  -994.512267266     A.U. after    6 cycles
 E2 =    -0.6651094684D+00 EUMP2 =    -0.99517737673480D+03
 SCF Done:  E(RHF) =  -994.509089407     A.U. after   11 cycles
 E2 =    -0.6648925377D+00 EUMP2 =    -0.99517398194516D+03
 SCF Done:  E(RHF) =  -994.509424573     A.U. after    9 cycles
 E2 =    -0.6645791486D+00 EUMP2 =    -0.99517400372153D+03
 SCF Done:  E(RHF) =  -994.506214482     A.U. after   11 cycles
 E2 =    -0.6643983846D+00 EUMP2 =    -0.99517061286621D+03
 SCF Done:  E(RHF) =  -994.506467273     A.U. after    9 cycles
 E2 =    -0.6641596035D+00 EUMP2 =    -0.99517062687633D+03
    -- Stationary point found.
 SCF Done:  E(RHF) =  -994.503269150     A.U. after   12 cycles
 E2 =    -0.6640277793D+00 EUMP2 =    -0.99516729692943D+03
 SCF Done:  E(RHF) =  -994.503473042     A.U. after    9 cycles
 E2 =    -0.6638340130D+00 EUMP2 =    -0.99516730705464D+03
 Optimization completed.
    -- Stationary point found.

                         Standard orientation:
 ---------------------------------------------------------------------
 Center     Atomic      Atomic             Coordinates (Angstroms)
 Number     Number       Type             X           Y           Z
 ---------------------------------------------------------------------
      1          8           0       -0.674709    0.986518    0.070399
      2         17           0       -1.676107   -0.363950   -0.000909
      3         17           0        1.999270   -0.146240    0.008462
      4          1           0       -0.096097    0.781076   -0.691594
 ---------------------------------------------------------------------

 The electronic state is 1-A.
 Alpha  occ. eigenvalues -- -104.73762-104.52255 -20.47757 -10.45736 -10.24701
 Alpha  occ. eigenvalues --   -7.92455  -7.92183  -7.92166  -7.71311  -7.71303
 Alpha  occ. eigenvalues --   -7.71300  -1.25018  -0.90376  -0.75603  -0.55638
 Alpha  occ. eigenvalues --   -0.45449  -0.44537  -0.31592  -0.28893  -0.17333
 Alpha  occ. eigenvalues --   -0.17017  -0.16821
 Alpha virt. eigenvalues --    0.15208   0.17925   0.22197   0.23203   0.26429
 Alpha virt. eigenvalues --    0.27565   0.27945   0.28875   0.29874   0.31772
 Alpha virt. eigenvalues --    0.32564   0.35244   0.40165   0.41537   0.45719

 Mulliken charges:
               1
     1  O   -0.373436
     2  Cl   0.072134
     3  Cl  -0.935536
     4  H    0.236838
 Sum of Mulliken charges =  -1.00000

 Dipole moment (field-independent basis, Debye):
    X=             -7.0899    Y=              0.2843    Z=             -0.8371  Tot=              7.1448
 Quadrupole moment (field-independent basis, Debye-Ang):
   XX=            -57.5897   YY=            -37.0658   ZZ=            -35.7911
   XY=              2.8772   XZ=              0.1195   YZ=             -0.9295

 Normal termination of Gaussian 16 at Wed Sep 22 15:38:50 2021.
