 Gaussian 16, Revision B.01,
 Gaussian 16:  ES64L-G16RevB.01 20-Dec-2017

 -------------------------------------------------
 #p opt=(z-matrix) mp2/aug-cc-pvtz density=current
 -------------------------------------------------

 -----
 title
 -----
 Symbolic Z-matrix:
 Charge = -1 Multiplicity = 1

 SCF Done:  E(RHF) =  -994.522323834     A.U. after   13 cycles
 E2 =    -0.6653855395D+00 EUMP2 =    -0.99518770937392D+03
 SCF Done:  E(RHF) =  -994.523960932     A.U. after   12 cycles
 E2 =    -0.6670031076D+00 EUMP2 =    -0.99519096403978D+03
 SCF Done:  E(RHF) =  -994.524202421     A.U. after   11 cycles
 E2 =    -0.6677441086D+00 EUMP2 =    -0.99519194652919D+03
 SCF Done:  E(RHF) =  -994.523835614     A.U. after   11 cycles
 E2 =    -0.6682871848D+00 EUMP2 =    -0.99519212279864D+03
 SCF Done:  E(RHF) =  -994.523860311     A.U. after    9 cycles
 E2 =    -0.6682646134D+00 EUMP2 =    -0.99519212492446D+03
 SCF Done:  E(RHF) =  -994.523883918     A.U. after    9 cycles
 E2 =    -0.6682418366D+00 EUMP2 =    -0.99519212575494D+03
 Optimization completed.
    -- Stationary point found.

                         Standard orientation:
 ---------------------------------------------------------------------
 Center     Atomic      Atomic             Coordinates (Angstroms)
 Number     Number       Type             X           Y           Z
 ---------------------------------------------------------------------
      1          8           0        0.681385    0.994148   -0.000002
      2         17           0        1.685611   -0.356350   -0.000002
      3         17           0       -1.990706   -0.146219   -0.000002
      4          1           0       -0.264472    0.590485    0.000075
 ---------------------------------------------------------------------

 The electronic state is 1-A.
 Alpha  occ. eigenvalues -- -104.72208-104.54992 -20.44830 -10.44161 -10.27482
 Alpha  occ. eigenvalues --   -7.90878  -7.90620  -7.90610  -7.74099  -7.74081
 Alpha  occ. eigenvalues --   -7.74081  -1.21496  -0.88533  -0.79002  -0.52674
 Alpha  occ. eigenvalues --   -0.43112  -0.42308  -0.29984  -0.27063  -0.20593
 Alpha  occ. eigenvalues --   -0.19779  -0.19775
 Alpha virt. eigenvalues --    0.16127   0.18668   0.22582   0.23556   0.25819
 Alpha virt. eigenvalues --    0.27266   0.27486   0.29634   0.31075   0.32743
 Alpha virt. eigenvalues --    0.33744   0.35025   0.38580   0.45305   0.46286

 Mulliken charges:
               1
     1  O   -0.499944
     2  Cl   0.037630
     3  Cl  -0.829683
     4  H    0.291997
 Sum of Mulliken charges =  -1.00000

 Dipole moment (field-independent basis, Debye):
    X=              5.1739    Y=             -0.3160    Z=              0.0001  Tot=              5.1836
 Quadrupole moment (field-independent basis, Debye-Ang):
   XX=            -54.3837   YY=            -37.3842   ZZ=            -36.6614
   XY=             -2.6811   XZ=             -0.0000   YZ=              0.0001

 Normal termination of Gaussian 16 at Wed Sep 15 11:53:31 2021.
