 Gaussian 16, Revision B.01,
 Gaussian 16:  ES64L-G16RevB.01 20-Dec-2017

 -------------------------------------
 #p SP mp2/aug-cc-pvtz density=current
 -------------------------------------

 -----
 title
 -----
 Symbolic Z-matrix:
 Charge = -1 Multiplicity = 1

                         Standard orientation:
 ---------------------------------------------------------------------
 Center     Atomic      Atomic             Coordinates (Angstroms)
 Number     Number       Type             X           Y           Z
 ---------------------------------------------------------------------
      1          8           0        0.680544    0.993337   -0.020724
      2         17           0       -1.991166   -0.146338   -0.005033
      3         17           0        1.684634   -0.356854    0.000034
      4          1           0       -0.233305    0.607563    0.250788
 ---------------------------------------------------------------------

 SCF Done:  E(RHF) =  -994.520825348     A.U. after   13 cycles
 E2 =    -0.6679923172D+00 EUMP2 =    -0.99518881766496D+03

 The electronic state is 1-A.
 Alpha  occ. eigenvalues -- -104.72391-104.54665 -20.45241 -10.44347 -10.27147
 Alpha  occ. eigenvalues --   -7.91064  -7.90804  -7.90794  -7.73763  -7.73746
 Alpha  occ. eigenvalues --   -7.73745  -1.21810  -0.88705  -0.78552  -0.52869
 Alpha  occ. eigenvalues --   -0.43394  -0.42567  -0.30123  -0.27289  -0.20191
 Alpha  occ. eigenvalues --   -0.19441  -0.19388
 Alpha virt. eigenvalues --    0.16056   0.18581   0.22578   0.23443   0.25885
 Alpha virt. eigenvalues --    0.27302   0.27689   0.29539   0.31334   0.31757
 Alpha virt. eigenvalues --    0.33969   0.34931   0.39664   0.43898   0.46471

 Mulliken charges:
               1
     1  O   -0.484031
     2  Cl  -0.842611
     3  Cl   0.042747
     4  H    0.283895
 Sum of Mulliken charges =  -1.00000

 Dipole moment (field-independent basis, Debye):
    X=              5.3904    Y=             -0.2487    Z=              0.2378  Tot=              5.4013
 Quadrupole moment (field-independent basis, Debye-Ang):
   XX=            -54.7874   YY=            -37.3727   ZZ=            -36.5662
   XY=             -2.7202   XZ=             -0.0241   YZ=              0.2353

 Normal termination of Gaussian 16 at Wed Sep 15 14:23:42 2021.
