 Gaussian 16, Revision B.01,
 Gaussian 16:  ES64L-G16RevB.01 20-Dec-2017

 --------------------------------------------------------
 #p pop=NBO SP NoSymm mp2/gen Pseudo=read density=current
 --------------------------------------------------------

 -----
 title
 -----
 Symbolic Z-matrix:
 Charge = -1 Multiplicity = 1

                          Input orientation:
 ---------------------------------------------------------------------
 Center     Atomic      Atomic             Coordinates (Angstroms)
 Number     Number       Type             X           Y           Z
 ---------------------------------------------------------------------
      1          8           0        0.000000    0.000000    0.000000
      2          1           0        0.960908    0.000000    0.000000
      3         53           0       -0.720970   -3.433625    0.000000
      4          1           0       -0.201863   -0.961376    0.000000
 ---------------------------------------------------------------------

 SCF Done:  E(RHF) =  -370.816779217     A.U. after   12 cycles
 E2 =    -0.4970006919D+00 EUMP2 =    -0.37131377990851D+03

 Alpha  occ. eigenvalues --  -20.40297  -7.46690  -5.29245  -5.29219  -5.29215
 Alpha  occ. eigenvalues --   -2.01991  -2.01974  -2.01969  -2.01942  -2.01942
 Alpha  occ. eigenvalues --   -1.18471  -0.62865  -0.54128  -0.42868  -0.34718
 Alpha  occ. eigenvalues --   -0.14775  -0.14231  -0.14194
 Alpha virt. eigenvalues --    0.13217   0.16979   0.23337   0.24546   0.25246
 Alpha virt. eigenvalues --    0.26982   0.28790   0.29217   0.31262   0.33637
 Alpha virt. eigenvalues --    0.36678   0.37214   0.37587   0.39565   0.40947

 Mulliken charges:
               1
     1  O   -0.523620
     2  H    0.168561
     3  I   -0.913390
     4  H    0.268450
 Sum of Mulliken charges =  -1.00000

 Dipole moment (field-independent basis, Debye):
    X=              4.1581    Y=             13.6644    Z=              0.0000  Tot=             14.2830
 Quadrupole moment (field-independent basis, Debye-Ang):
   XX=            -41.3855   YY=            -91.7891   ZZ=            -41.8887
   XY=             -9.9097   XZ=             -0.0000   YZ=             -0.0000

 Summary of Natural Population Analysis:

                                       Natural Population
                Natural  -----------------------------------------------
    Atom  No    Charge         Core      Valence    Rydberg      Total
 -----------------------------------------------------------------------
      O    1   -0.98185      1.99967     6.87436    0.10782     8.98185
      H    2    0.44719      0.00000     0.54596    0.00685     0.55281
      I    3   -0.94887     45.98387     7.79589    0.16910    53.94887
      H    4    0.48350      0.00000     0.49440    0.02210     0.51650
 =======================================================================
   * Total *   -1.00003     47.98355    15.71062    0.30587    64.00003

 Normal termination of Gaussian 16 at Tue Oct 26 12:33:15 2021.
