 Gaussian 16, Revision B.01,
 Gaussian 16:  ES64L-G16RevB.01 20-Dec-2017

 --------------------------------------------------------
 #p pop=NBO SP NoSymm mp2/gen Pseudo=read density=current
 --------------------------------------------------------

 -----
 title
 -----
 Symbolic Z-matrix:
 Charge = -1 Multiplicity = 1

                          Input orientation:
 ---------------------------------------------------------------------
 Center     Atomic      Atomic             Coordinates (Angstroms)
 Number     Number       Type             X           Y           Z
 ---------------------------------------------------------------------
      1          8           0        0.000000    0.000000    0.000000
      2          1           0        0.960908    0.000000    0.000000
      3         53           0       -0.720970   -3.433628    0.000000
      4          1           0       -0.141031   -0.671664    0.686311
 ---------------------------------------------------------------------

 SCF Done:  E(RHF) =  -370.807575545     A.U. after   12 cycles
 E2 =    -0.4943537191D+00 EUMP2 =    -0.37130192926452D+03

 Alpha  occ. eigenvalues --  -20.41722  -7.45727  -5.28284  -5.28265  -5.28235
 Alpha  occ. eigenvalues --   -2.01028  -2.01024  -2.00993  -2.00970  -2.00963
 Alpha  occ. eigenvalues --   -1.20178  -0.61613  -0.54900  -0.44626  -0.36065
 Alpha  occ. eigenvalues --   -0.13511  -0.13281  -0.13095
 Alpha virt. eigenvalues --    0.13187   0.15970   0.23618   0.24418   0.25894
 Alpha virt. eigenvalues --    0.26505   0.26864   0.29111   0.31857   0.33591
 Alpha virt. eigenvalues --    0.35464   0.36549   0.37972   0.39318   0.40588

 Mulliken charges:
               1
     1  O   -0.447371
     2  H    0.189907
     3  I   -0.962656
     4  H    0.220120
 Sum of Mulliken charges =  -1.00000

 Dipole moment (field-independent basis, Debye):
    X=              4.3772    Y=             14.7763    Z=              0.6083  Tot=             15.4230
 Quadrupole moment (field-independent basis, Debye-Ang):
   XX=            -41.9742   YY=            -96.5881   ZZ=            -41.0759
   XY=            -10.8326   XZ=             -0.1664   YZ=             -0.1239

 Summary of Natural Population Analysis:

                                       Natural Population
                Natural  -----------------------------------------------
    Atom  No    Charge         Core      Valence    Rydberg      Total
 -----------------------------------------------------------------------
      O    1   -1.35479      1.99992     7.24531    0.10956     9.35479
      H    2    0.66417      0.00000     0.33019    0.00564     0.33583
      I    3   -0.98928     45.98408     7.82978    0.17542    53.98928
      H    4    0.67989      0.00000     0.30039    0.01972     0.32011
 =======================================================================
   * Total *   -1.00000     47.98400    15.70566    0.31034    64.00000

 Normal termination of Gaussian 16 at Tue Oct 19 17:08:43 2021.
