 Gaussian 16, Revision B.01,
 Gaussian 16:  ES64L-G16RevB.01 20-Dec-2017

 --------------------------------------------------------
 #p pop=NBO SP NoSymm mp2/gen Pseudo=read density=current
 --------------------------------------------------------

 -----
 title
 -----
 Symbolic Z-matrix:
 Charge = -1 Multiplicity = 1

                          Input orientation:
 ---------------------------------------------------------------------
 Center     Atomic      Atomic             Coordinates (Angstroms)
 Number     Number       Type             X           Y           Z
 ---------------------------------------------------------------------
      1          8           0        0.000000    0.000000    0.000000
      2          1           0        0.960908    0.000000    0.000000
      3         53           0       -0.720970   -3.433628    0.000000
      4          1           0       -0.163862   -0.780394    0.558354
 ---------------------------------------------------------------------

 SCF Done:  E(RHF) =  -370.810916825     A.U. after   12 cycles
 E2 =    -0.4949965010D+00 EUMP2 =    -0.37130591332620D+03

 Alpha  occ. eigenvalues --  -20.41277  -7.46042  -5.28600  -5.28578  -5.28553
 Alpha  occ. eigenvalues --   -2.01343  -2.01337  -2.01314  -2.01286  -2.01281
 Alpha  occ. eigenvalues --   -1.19652  -0.62005  -0.54736  -0.44045  -0.35661
 Alpha  occ. eigenvalues --   -0.13911  -0.13592  -0.13452
 Alpha virt. eigenvalues --    0.13220   0.16343   0.23536   0.24453   0.25751
 Alpha virt. eigenvalues --    0.26781   0.26913   0.29164   0.32289   0.33332
 Alpha virt. eigenvalues --    0.36135   0.36665   0.37686   0.39088   0.40687

 Mulliken charges:
               1
     1  O   -0.463084
     2  H    0.184764
     3  I   -0.947969
     4  H    0.226288
 Sum of Mulliken charges =  -1.00000

 Dipole moment (field-independent basis, Debye):
    X=              4.3056    Y=             14.4064    Z=              0.4511  Tot=             15.0429
 Quadrupole moment (field-independent basis, Debye-Ang):
   XX=            -41.7868   YY=            -95.0574   ZZ=            -41.3702
   XY=            -10.5345   XZ=             -0.1400   YZ=             -0.1306

 Summary of Natural Population Analysis:

                                       Natural Population
                Natural  -----------------------------------------------
    Atom  No    Charge         Core      Valence    Rydberg      Total
 -----------------------------------------------------------------------
      O    1   -1.36338      1.99992     7.25476    0.10870     9.36338
      H    2    0.66446      0.00000     0.32979    0.00576     0.33554
      I    3   -0.98540     45.98405     7.82729    0.17406    53.98540
      H    4    0.68433      0.00000     0.29471    0.02096     0.31567
 =======================================================================
   * Total *   -1.00000     47.98397    15.70655    0.30948    64.00000

 Normal termination of Gaussian 16 at Tue Oct 19 17:08:07 2021.
