 Gaussian 16, Revision B.01,
 Gaussian 16:  ES64L-G16RevB.01 20-Dec-2017

 --------------------------------------------------------
 #p pop=NBO SP NoSymm mp2/gen Pseudo=read density=current
 --------------------------------------------------------

 -----
 title
 -----
 Symbolic Z-matrix:
 Charge = -1 Multiplicity = 1

                          Input orientation:
 ---------------------------------------------------------------------
 Center     Atomic      Atomic             Coordinates (Angstroms)
 Number     Number       Type             X           Y           Z
 ---------------------------------------------------------------------
      1          8           0        0.000000    0.000000    0.000000
      2          1           0        0.960908    0.000000    0.000000
      3         53           0       -0.720970   -3.433628    0.000000
      4          1           0       -0.128063   -0.609902    0.742703
 ---------------------------------------------------------------------

 SCF Done:  E(RHF) =  -370.805757809     A.U. after   12 cycles
 E2 =    -0.4941108536D+00 EUMP2 =    -0.37129986866312D+03

 Alpha  occ. eigenvalues --  -20.41940  -7.45568  -5.28125  -5.28107  -5.28074
 Alpha  occ. eigenvalues --   -2.00869  -2.00866  -2.00832  -2.00811  -2.00803
 Alpha  occ. eigenvalues --   -1.20433  -0.61421  -0.54943  -0.44925  -0.36256
 Alpha  occ. eigenvalues --   -0.13315  -0.13124  -0.12914
 Alpha virt. eigenvalues --    0.13163   0.15772   0.23653   0.24404   0.25951
 Alpha virt. eigenvalues --    0.26444   0.26847   0.29083   0.31582   0.33709
 Alpha virt. eigenvalues --    0.35175   0.36487   0.38103   0.39427   0.40528

 Mulliken charges:
               1
     1  O   -0.441171
     2  H    0.191903
     3  I   -0.969320
     4  H    0.218587
 Sum of Mulliken charges =  -1.00000

 Dipole moment (field-independent basis, Debye):
    X=              4.4134    Y=             14.9674    Z=              0.6879  Tot=             15.6197
 Quadrupole moment (field-independent basis, Debye-Ang):
   XX=            -42.0661   YY=            -97.3391   ZZ=            -40.9207
   XY=            -10.9809   XZ=             -0.1739   YZ=             -0.0994

 Summary of Natural Population Analysis:

                                       Natural Population
                Natural  -----------------------------------------------
    Atom  No    Charge         Core      Valence    Rydberg      Total
 -----------------------------------------------------------------------
      O    1   -1.35039      1.99992     7.24039    0.11008     9.35039
      H    2    0.66393      0.00000     0.33048    0.00559     0.33607
      I    3   -0.99086     45.98409     7.83070    0.17607    53.99086
      H    4    0.67732      0.00000     0.30359    0.01909     0.32268
 =======================================================================
   * Total *   -1.00000     47.98401    15.70516    0.31083    64.00000

 Normal termination of Gaussian 16 at Tue Oct 19 17:09:02 2021.
