 Gaussian 16, Revision B.01,
 Gaussian 16:  ES64L-G16RevB.01 20-Dec-2017

 --------------------------------------------------------
 #p pop=NBO SP NoSymm mp2/gen Pseudo=read density=current
 --------------------------------------------------------

 -----
 title
 -----
 Symbolic Z-matrix:
 Charge = -1 Multiplicity = 1

                          Input orientation:
 ---------------------------------------------------------------------
 Center     Atomic      Atomic             Coordinates (Angstroms)
 Number     Number       Type             X           Y           Z
 ---------------------------------------------------------------------
      1          8           0        0.000000    0.000000    0.000000
      2          1           0        0.960908    0.000000    0.000000
      3         53           0       -0.720970   -3.433628    0.000000
      4          1           0       -0.173541   -0.826490    0.487580
 ---------------------------------------------------------------------

 SCF Done:  E(RHF) =  -370.812384034     A.U. after   12 cycles
 E2 =    -0.4953722633D+00 EUMP2 =    -0.37130775629752D+03

 Alpha  occ. eigenvalues --  -20.41059  -7.46191  -5.28749  -5.28725  -5.28704
 Alpha  occ. eigenvalues --   -2.01492  -2.01485  -2.01465  -2.01436  -2.01432
 Alpha  occ. eigenvalues --   -1.19392  -0.62196  -0.54626  -0.43773  -0.35458
 Alpha  occ. eigenvalues --   -0.14105  -0.13739  -0.13621
 Alpha virt. eigenvalues --    0.13228   0.16508   0.23493   0.24472   0.25665
 Alpha virt. eigenvalues --    0.26931   0.27019   0.29188   0.32354   0.33266
 Alpha virt. eigenvalues --    0.36491   0.36713   0.37544   0.38992   0.40731

 Mulliken charges:
               1
     1  O   -0.473004
     2  H    0.181772
     3  I   -0.940313
     4  H    0.231546
 Sum of Mulliken charges =  -1.00000

 Dipole moment (field-independent basis, Debye):
    X=              4.2718    Y=             14.2343    Z=              0.3760  Tot=             14.8663
 Quadrupole moment (field-independent basis, Debye-Ang):
   XX=            -41.6962   YY=            -94.3182   ZZ=            -41.5005
   XY=            -10.3921   XZ=             -0.1224   YZ=             -0.1189

 Summary of Natural Population Analysis:

                                       Natural Population
                Natural  -----------------------------------------------
    Atom  No    Charge         Core      Valence    Rydberg      Total
 -----------------------------------------------------------------------
      O    1   -1.36743      1.99992     7.25913    0.10839     9.36743
      H    2    0.66451      0.00000     0.32967    0.00582     0.33549
      I    3   -0.98318     45.98404     7.82575    0.17338    53.98318
      H    4    0.68610      0.00000     0.29237    0.02153     0.31390
 =======================================================================
   * Total *   -1.00000     47.98396    15.70693    0.30911    64.00000

 Normal termination of Gaussian 16 at Tue Oct 19 17:07:49 2021.
