 Gaussian 16, Revision B.01,
 Gaussian 16:  ES64L-G16RevB.01 20-Dec-2017

 --------------------------------------------------------
 #p pop=NBO SP NoSymm mp2/gen Pseudo=read density=current
 --------------------------------------------------------

 -----
 title
 -----
 Symbolic Z-matrix:
 Charge = -1 Multiplicity = 1

                          Input orientation:
 ---------------------------------------------------------------------
 Center     Atomic      Atomic             Coordinates (Angstroms)
 Number     Number       Type             X           Y           Z
 ---------------------------------------------------------------------
      1          8           0        0.000000    0.000000    0.000000
      2          1           0        0.960908    0.000000    0.000000
      3         53           0       -0.720970   -3.433625    0.000000
      4          1           0       -0.163862   -0.780394    0.558354
 ---------------------------------------------------------------------

 SCF Done:  E(RHF) =  -370.810916802     A.U. after   12 cycles
 E2 =    -0.4949965218D+00 EUMP2 =    -0.37130591332372D+03

 Alpha  occ. eigenvalues --  -20.41277  -7.46042  -5.28600  -5.28578  -5.28553
 Alpha  occ. eigenvalues --   -2.01343  -2.01337  -2.01314  -2.01286  -2.01281
 Alpha  occ. eigenvalues --   -1.19652  -0.62005  -0.54736  -0.44045  -0.35661
 Alpha  occ. eigenvalues --   -0.13911  -0.13592  -0.13452
 Alpha virt. eigenvalues --    0.13220   0.16343   0.23536   0.24453   0.25751
 Alpha virt. eigenvalues --    0.26781   0.26913   0.29164   0.32289   0.33332
 Alpha virt. eigenvalues --    0.36135   0.36665   0.37686   0.39088   0.40687

 Mulliken charges:
               1
     1  O   -0.463084
     2  H    0.184764
     3  I   -0.947968
     4  H    0.226288
 Sum of Mulliken charges =  -1.00000

 Dipole moment (field-independent basis, Debye):
    X=              4.3056    Y=             14.4064    Z=              0.4511  Tot=             15.0429
 Quadrupole moment (field-independent basis, Debye-Ang):
   XX=            -41.7868   YY=            -95.0573   ZZ=            -41.3702
   XY=            -10.5345   XZ=             -0.1400   YZ=             -0.1306

 Summary of Natural Population Analysis:

                                       Natural Population
                Natural  -----------------------------------------------
    Atom  No    Charge         Core      Valence    Rydberg      Total
 -----------------------------------------------------------------------
      O    1   -0.95331      1.99968     6.84592    0.10771     8.95331
      H    2    0.44778      0.00000     0.54551    0.00671     0.55222
      I    3   -0.97672     45.98404     7.81931    0.17337    53.97672
      H    4    0.48225      0.00000     0.49881    0.01894     0.51775
 =======================================================================
   * Total *   -1.00000     47.98372    15.70955    0.30673    64.00000

 Normal termination of Gaussian 16 at Tue Oct 26 12:34:40 2021.
