 Gaussian 16, Revision B.01,
 Gaussian 16:  ES64L-G16RevB.01 20-Dec-2017

 ----------------------------------------------------
 # opt=(z-matrix) mp2/gen Pseudo=read density=current
 ----------------------------------------------------

 -----
 title
 -----
 Symbolic Z-matrix:
 Charge = -1 Multiplicity = 1

 SCF Done:  E(RHF) =  -370.816779237     A.U. after   12 cycles
 E2 =    -0.4970006711D+00 EUMP2 =    -0.37131377990846D+03
 Optimization completed.
    -- Stationary point found.
 SCF Done:  E(RHF) =  -370.816637492     A.U. after   10 cycles
 E2 =    -0.4969506266D+00 EUMP2 =    -0.37131358811809D+03
 Optimization completed.
 SCF Done:  E(RHF) =  -370.816214944     A.U. after   10 cycles
 E2 =    -0.4968087125D+00 EUMP2 =    -0.37131302365687D+03
 SCF Done:  E(RHF) =  -370.816259428     A.U. after    7 cycles
 E2 =    -0.4967649439D+00 EUMP2 =    -0.37131302437155D+03
 SCF Done:  E(RHF) =  -370.815565649     A.U. after   10 cycles
 E2 =    -0.4965508231D+00 EUMP2 =    -0.37131211647217D+03
 SCF Done:  E(RHF) =  -370.815637246     A.U. after    7 cycles
 E2 =    -0.4964806487D+00 EUMP2 =    -0.37131211789422D+03
 SCF Done:  E(RHF) =  -370.814689010     A.U. after   10 cycles
 E2 =    -0.4962166075D+00 EUMP2 =    -0.37131090561740D+03
 SCF Done:  E(RHF) =  -370.814768520     A.U. after    7 cycles
 E2 =    -0.4961389217D+00 EUMP2 =    -0.37131090744198D+03
 SCF Done:  E(RHF) =  -370.813589157     A.U. after   10 cycles
 E2 =    -0.4958460188D+00 EUMP2 =    -0.37130943517574D+03
 SCF Done:  E(RHF) =  -370.813676767     A.U. after    7 cycles
 E2 =    -0.4957607358D+00 EUMP2 =    -0.37130943750306D+03
 SCF Done:  E(RHF) =  -370.812295402     A.U. after   10 cycles
 E2 =    -0.4954583686D+00 EUMP2 =    -0.37130775377033D+03
 SCF Done:  E(RHF) =  -370.812384020     A.U. after    7 cycles
 E2 =    -0.4953722753D+00 EUMP2 =    -0.37130775629510D+03
 SCF Done:  E(RHF) =  -370.810833221     A.U. after   10 cycles
 E2 =    -0.4950777014D+00 EUMP2 =    -0.37130591092202D+03
 SCF Done:  E(RHF) =  -370.810916867     A.U. after    7 cycles
 E2 =    -0.4949964559D+00 EUMP2 =    -0.37130591332248D+03
 SCF Done:  E(RHF) =  -370.809230056     A.U. after   10 cycles
 E2 =    -0.4947243937D+00 EUMP2 =    -0.37130395444986D+03
 SCF Done:  E(RHF) =  -370.809304354     A.U. after    7 cycles
 E2 =    -0.4946521220D+00 EUMP2 =    -0.37130395647625D+03
 SCF Done:  E(RHF) =  -370.807513415     A.U. after   10 cycles
 E2 =    -0.4944143246D+00 EUMP2 =    -0.37130192773989D+03
 SCF Done:  E(RHF) =  -370.807575624     A.U. after    7 cycles
 E2 =    -0.4943536349D+00 EUMP2 =    -0.37130192925854D+03
    -- Stationary point found.
 SCF Done:  E(RHF) =  -370.805709182     A.U. after   10 cycles
 E2 =    -0.4941584775D+00 EUMP2 =    -0.37129986765964D+03
 SCF Done:  E(RHF) =  -370.805758008     A.U. after    7 cycles
 E2 =    -0.4941106477D+00 EUMP2 =    -0.37129986865612D+03
 Optimization completed.
    -- Stationary point found.

                         Standard orientation:
 ---------------------------------------------------------------------
 Center     Atomic      Atomic             Coordinates (Angstroms)
 Number     Number       Type             X           Y           Z
 ---------------------------------------------------------------------
      1          8           0       -2.955994    0.086286    0.082914
      2          1           0       -3.181031   -0.827016   -0.113510
      3         53           0        0.550469   -0.001756    0.002019
      4          1           0       -2.345895    0.229785   -0.656793
 ---------------------------------------------------------------------

 The electronic state is 1-A.
 Alpha  occ. eigenvalues --  -20.41940  -7.45568  -5.28125  -5.28107  -5.28074
 Alpha  occ. eigenvalues --   -2.00869  -2.00866  -2.00832  -2.00811  -2.00803
 Alpha  occ. eigenvalues --   -1.20433  -0.61421  -0.54943  -0.44925  -0.36256
 Alpha  occ. eigenvalues --   -0.13315  -0.13124  -0.12914
 Alpha virt. eigenvalues --    0.13163   0.15772   0.23653   0.24404   0.25951
 Alpha virt. eigenvalues --    0.26444   0.26847   0.29083   0.31582   0.33709
 Alpha virt. eigenvalues --    0.35175   0.36487   0.38103   0.39427   0.40528

 Mulliken charges:
               1
     1  O   -0.441167
     2  H    0.191903
     3  I   -0.969320
     4  H    0.218584
 Sum of Mulliken charges =  -1.00000

 Dipole moment (field-independent basis, Debye):
    X=             -1.3960    Y=             -1.0910    Z=             -0.9772  Tot=              2.0234
 Quadrupole moment (field-independent basis, Debye-Ang):
   XX=            -49.0720   YY=            -40.2072   ZZ=            -41.1050
   XY=              4.4364   XZ=              3.0411   YZ=             -0.1416

 Normal termination of Gaussian 16 at Tue Oct 26 12:26:46 2021.
