 Gaussian 16, Revision B.01,
 Gaussian 16:  ES64L-G16RevB.01 20-Dec-2017

 --------------------------------------------------------
 #p pop=NBO SP NoSymm mp2/gen Pseudo=read density=current
 --------------------------------------------------------

 -----
 title
 -----
 Symbolic Z-matrix:
 Charge = -1 Multiplicity = 1

                          Input orientation:
 ---------------------------------------------------------------------
 Center     Atomic      Atomic             Coordinates (Angstroms)
 Number     Number       Type             X           Y           Z
 ---------------------------------------------------------------------
      1          8           0        0.000000    0.000000    0.000000
      2          1           0        0.960908    0.000000    0.000000
      3         53           0       -0.720970   -3.433625    0.000000
      4          1           0       -0.198629   -0.945970    0.170437
 ---------------------------------------------------------------------

 SCF Done:  E(RHF) =  -370.816259330     A.U. after   12 cycles
 E2 =    -0.4967650408D+00 EUMP2 =    -0.37131302437048D+03

 Alpha  occ. eigenvalues --  -20.40395  -7.46627  -5.29183  -5.29158  -5.29150
 Alpha  occ. eigenvalues --   -2.01928  -2.01914  -2.01907  -2.01878  -2.01878
 Alpha  occ. eigenvalues --   -1.18585  -0.62779  -0.54195  -0.42978  -0.34814
 Alpha  occ. eigenvalues --   -0.14690  -0.14170  -0.14121
 Alpha virt. eigenvalues --    0.13222   0.16931   0.23357   0.24531   0.25317
 Alpha virt. eigenvalues --    0.26990   0.28375   0.29230   0.31544   0.33572
 Alpha virt. eigenvalues --    0.36705   0.37219   0.37512   0.39262   0.40918

 Mulliken charges:
               1
     1  O   -0.515639
     2  H    0.170720
     3  I   -0.916344
     4  H    0.261262
 Sum of Mulliken charges =  -1.00000

 Dipole moment (field-independent basis, Debye):
    X=              4.1722    Y=             13.7352    Z=              0.1132  Tot=             14.3553
 Quadrupole moment (field-independent basis, Debye-Ang):
   XX=            -41.4253   YY=            -92.1096   ZZ=            -41.8436
   XY=             -9.9706   XZ=             -0.0410   YZ=             -0.0387

 Summary of Natural Population Analysis:

                                       Natural Population
                Natural  -----------------------------------------------
    Atom  No    Charge         Core      Valence    Rydberg      Total
 -----------------------------------------------------------------------
      O    1   -0.97900      1.99967     6.87160    0.10772     8.97900
      H    2    0.44727      0.00000     0.54589    0.00684     0.55273
      I    3   -0.95227     45.98390     7.79883    0.16954    53.95227
      H    4    0.48399      0.00000     0.49422    0.02179     0.51601
 =======================================================================
   * Total *   -1.00001     47.98357    15.71054    0.30590    64.00001

 Normal termination of Gaussian 16 at Tue Oct 26 12:33:40 2021.
