 Gaussian 16, Revision B.01,
 Gaussian 16:  ES64L-G16RevB.01 20-Dec-2017

 --------------------------------------------------------
 #p pop=NBO SP NoSymm mp2/gen Pseudo=read density=current
 --------------------------------------------------------

 -----
 title
 -----
 Symbolic Z-matrix:
 Charge = -1 Multiplicity = 1

                          Input orientation:
 ---------------------------------------------------------------------
 Center     Atomic      Atomic             Coordinates (Angstroms)
 Number     Number       Type             X           Y           Z
 ---------------------------------------------------------------------
      1          8           0        0.000000    0.000000    0.000000
      2          1           0        0.960908    0.000000    0.000000
      3         53           0       -0.720970   -3.433628    0.000000
      4          1           0       -0.194552   -0.926557    0.253684
 ---------------------------------------------------------------------

 SCF Done:  E(RHF) =  -370.815637052     A.U. after   12 cycles
 E2 =    -0.4964808420D+00 EUMP2 =    -0.37131211789392D+03

 Alpha  occ. eigenvalues --  -20.40513  -7.46551  -5.29108  -5.29083  -5.29072
 Alpha  occ. eigenvalues --   -2.01852  -2.01840  -2.01830  -2.01801  -2.01799
 Alpha  occ. eigenvalues --   -1.18734  -0.62674  -0.54284  -0.43118  -0.34933
 Alpha  occ. eigenvalues --   -0.14586  -0.14095  -0.14033
 Alpha virt. eigenvalues --    0.13226   0.16866   0.23381   0.24518   0.25393
 Alpha virt. eigenvalues --    0.26990   0.28008   0.29228   0.31798   0.33493
 Alpha virt. eigenvalues --    0.36728   0.37232   0.37395   0.39062   0.40877

 Mulliken charges:
               1
     1  O   -0.506513
     2  H    0.172996
     3  I   -0.920422
     4  H    0.253939
 Sum of Mulliken charges =  -1.00000

 Dipole moment (field-independent basis, Debye):
    X=              4.1897    Y=             13.8222    Z=              0.1732  Tot=             14.4442
 Quadrupole moment (field-independent basis, Debye-Ang):
   XX=            -41.4731   YY=            -92.4997   ZZ=            -41.7881
   XY=            -10.0447   XZ=             -0.0618   YZ=             -0.0595

 Summary of Natural Population Analysis:

                                       Natural Population
                Natural  -----------------------------------------------
    Atom  No    Charge         Core      Valence    Rydberg      Total
 -----------------------------------------------------------------------
      O    1   -1.37732      1.99992     7.26951    0.10790     9.37732
      H    2    0.66445      0.00000     0.32957    0.00598     0.33555
      I    3   -0.97656     45.98400     7.82091    0.17165    53.97656
      H    4    0.68944      0.00000     0.28776    0.02281     0.31056
 =======================================================================
   * Total *   -1.00000     47.98392    15.70775    0.30833    64.00000

 Normal termination of Gaussian 16 at Tue Oct 19 17:06:54 2021.
