 Gaussian 16, Revision B.01,
 Gaussian 16:  ES64L-G16RevB.01 20-Dec-2017

 --------------------------------------------------------
 #p pop=NBO SP NoSymm mp2/gen Pseudo=read density=current
 --------------------------------------------------------

 -----
 title
 -----
 Symbolic Z-matrix:
 Charge = -1 Multiplicity = 1

                          Input orientation:
 ---------------------------------------------------------------------
 Center     Atomic      Atomic             Coordinates (Angstroms)
 Number     Number       Type             X           Y           Z
 ---------------------------------------------------------------------
      1          8           0        0.000000    0.000000    0.000000
      2          1           0        0.960908    0.000000    0.000000
      3         53           0       -0.720970   -3.433625    0.000000
      4          1           0       -0.201095   -0.957717    0.085617
 ---------------------------------------------------------------------

 SCF Done:  E(RHF) =  -370.816637471     A.U. after   12 cycles
 E2 =    -0.4969506466D+00 EUMP2 =    -0.37131358811728D+03

 Alpha  occ. eigenvalues --  -20.40322  -7.46675  -5.29230  -5.29205  -5.29199
 Alpha  occ. eigenvalues --   -2.01976  -2.01960  -2.01954  -2.01927  -2.01926
 Alpha  occ. eigenvalues --   -1.18493  -0.62844  -0.54138  -0.42892  -0.34740
 Alpha  occ. eigenvalues --   -0.14755  -0.14216  -0.14176
 Alpha virt. eigenvalues --    0.13218   0.16967   0.23342   0.24542   0.25265
 Alpha virt. eigenvalues --    0.26985   0.28671   0.29224   0.31343   0.33621
 Alpha virt. eigenvalues --    0.36686   0.37214   0.37570   0.39472   0.40941

 Mulliken charges:
               1
     1  O   -0.521666
     2  H    0.169142
     3  I   -0.914023
     4  H    0.266547
 Sum of Mulliken charges =  -1.00000

 Dipole moment (field-independent basis, Debye):
    X=              4.1614    Y=             13.6813    Z=              0.0558  Tot=             14.3003
 Quadrupole moment (field-independent basis, Debye-Ang):
   XX=            -41.3954   YY=            -91.8668   ZZ=            -41.8773
   XY=             -9.9245   XZ=             -0.0204   YZ=             -0.0190

 Summary of Natural Population Analysis:

                                       Natural Population
                Natural  -----------------------------------------------
    Atom  No    Charge         Core      Valence    Rydberg      Total
 -----------------------------------------------------------------------
      O    1   -0.98120      1.99967     6.87373    0.10780     8.98120
      H    2    0.44721      0.00000     0.54594    0.00685     0.55279
      I    3   -0.94968     45.98388     7.79659    0.16921    53.94968
      H    4    0.48365      0.00000     0.49433    0.02202     0.51635
 =======================================================================
   * Total *   -1.00003     47.98355    15.71059    0.30588    64.00003

 Normal termination of Gaussian 16 at Tue Oct 26 12:33:27 2021.
