 Gaussian 16, Revision B.01,
 Gaussian 16:  ES64L-G16RevB.01 20-Dec-2017

 --------------------------------------------------------
 #p pop=NBO SP NoSymm mp2/gen Pseudo=read density=current
 --------------------------------------------------------

 -----
 title
 -----
 Symbolic Z-matrix:
 Charge = -1 Multiplicity = 1

                          Input orientation:
 ---------------------------------------------------------------------
 Center     Atomic      Atomic             Coordinates (Angstroms)
 Number     Number       Type             X           Y           Z
 ---------------------------------------------------------------------
      1          8           0        0.000000    0.000000    0.000000
      2          1           0        0.960908    0.000000    0.000000
      3         53           0       -0.720970   -3.433628    0.000000
      4          1           0       -0.152994   -0.728637    0.624732
 ---------------------------------------------------------------------

 SCF Done:  E(RHF) =  -370.809304491     A.U. after   12 cycles
 E2 =    -0.4946519901D+00 EUMP2 =    -0.37130395648093D+03

 Alpha  occ. eigenvalues --  -20.41500  -7.45886  -5.28444  -5.28423  -5.28395
 Alpha  occ. eigenvalues --   -2.01187  -2.01183  -2.01155  -2.01129  -2.01123
 Alpha  occ. eigenvalues --   -1.19916  -0.61809  -0.54830  -0.44332  -0.35865
 Alpha  occ. eigenvalues --   -0.13711  -0.13438  -0.13275
 Alpha virt. eigenvalues --    0.13206   0.16162   0.23579   0.24435   0.25827
 Alpha virt. eigenvalues --    0.26615   0.26885   0.29138   0.32104   0.33457
 Alpha virt. eigenvalues --    0.35787   0.36609   0.37831   0.39201   0.40640

 Mulliken charges:
               1
     1  O   -0.454571
     2  H    0.187512
     3  I   -0.955490
     4  H    0.222549
 Sum of Mulliken charges =  -1.00000

 Dipole moment (field-independent basis, Debye):
    X=              4.3410    Y=             14.5883    Z=              0.5289  Tot=             15.2297
 Quadrupole moment (field-independent basis, Debye-Ang):
   XX=            -41.8803   YY=            -95.8213   ZZ=            -41.2273
   XY=            -10.6827   XZ=             -0.1549   YZ=             -0.1334

 Summary of Natural Population Analysis:

                                       Natural Population
                Natural  -----------------------------------------------
    Atom  No    Charge         Core      Valence    Rydberg      Total
 -----------------------------------------------------------------------
      O    1   -1.35914      1.99992     7.25013    0.10909     9.35914
      H    2    0.66435      0.00000     0.32996    0.00570     0.33565
      I    3   -0.98745     45.98407     7.82864    0.17475    53.98745
      H    4    0.68224      0.00000     0.29740    0.02035     0.31776
 =======================================================================
   * Total *   -1.00000     47.98399    15.70612    0.30989    64.00000

 Normal termination of Gaussian 16 at Tue Oct 19 17:08:25 2021.
