 Gaussian 16, Revision B.01,
 Gaussian 16:  ES64L-G16RevB.01 20-Dec-2017

 --------------------------------------------------------
 #p pop=NBO SP NoSymm mp2/gen Pseudo=read density=current
 --------------------------------------------------------

 -----
 title
 -----
 Symbolic Z-matrix:
 Charge = -1 Multiplicity = 1

                          Input orientation:
 ---------------------------------------------------------------------
 Center     Atomic      Atomic             Coordinates (Angstroms)
 Number     Number       Type             X           Y           Z
 ---------------------------------------------------------------------
      1          8           0        0.000000    0.000000    0.000000
      2          1           0        0.960908    0.000000    0.000000
      3         53           0       -0.720970   -3.433625    0.000000
      4          1           0       -0.188973   -0.899986    0.334711
 ---------------------------------------------------------------------

 SCF Done:  E(RHF) =  -370.814768585     A.U. after   12 cycles
 E2 =    -0.4961388565D+00 EUMP2 =    -0.37131090744146D+03

 Alpha  occ. eigenvalues --  -20.40669  -7.46450  -5.29008  -5.28983  -5.28968
 Alpha  occ. eigenvalues --   -2.01751  -2.01741  -2.01728  -2.01698  -2.01696
 Alpha  occ. eigenvalues --   -1.18923  -0.62538  -0.54390  -0.43302  -0.35085
 Alpha  occ. eigenvalues --   -0.14450  -0.13995  -0.13917
 Alpha virt. eigenvalues --    0.13229   0.16774   0.23413   0.24503   0.25481
 Alpha virt. eigenvalues --    0.26981   0.27638   0.29221   0.32053   0.33394
 Alpha virt. eigenvalues --    0.36740   0.37132   0.37335   0.38950   0.40828

 Mulliken charges:
               1
     1  O   -0.495599
     2  H    0.175715
     3  I   -0.926052
     4  H    0.245936
 Sum of Mulliken charges =  -1.00000

 Dipole moment (field-independent basis, Debye):
    X=              4.2128    Y=             13.9373    Z=              0.2368  Tot=             14.5620
 Quadrupole moment (field-independent basis, Debye-Ang):
   XX=            -41.5362   YY=            -93.0133   ZZ=            -41.7115
   XY=            -10.1425   XZ=             -0.0827   YZ=             -0.0808

 Summary of Natural Population Analysis:

                                       Natural Population
                Natural  -----------------------------------------------
    Atom  No    Charge         Core      Valence    Rydberg      Total
 -----------------------------------------------------------------------
      O    1   -0.97091      1.99968     6.86368    0.10756     8.97091
      H    2    0.44748      0.00000     0.54572    0.00680     0.55252
      I    3   -0.96114     45.98396     7.80641    0.17076    53.96114
      H    4    0.48457      0.00000     0.49450    0.02093     0.51543
 =======================================================================
   * Total *   -1.00000     47.98364    15.71031    0.30606    64.00000

 Normal termination of Gaussian 16 at Tue Oct 26 12:34:03 2021.
