 Gaussian 16, Revision B.01,
 Gaussian 16:  ES64L-G16RevB.01 20-Dec-2017

 ----------------------------------------------------
 # opt=(z-matrix) mp2/gen Pseudo=read density=current
 ----------------------------------------------------

 -----
 title
 -----
 Symbolic Z-matrix:
 Charge = -1 Multiplicity = 1

 SCF Done:  E(RHF) =  -370.816779264     A.U. after   12 cycles
 E2 =    -0.4970006444D+00 EUMP2 =    -0.37131377990848D+03
 Optimization completed.
    -- Stationary point found.
 SCF Done:  E(RHF) =  -370.816637518     A.U. after   10 cycles
 E2 =    -0.4969506000D+00 EUMP2 =    -0.37131358811814D+03
 Optimization completed.
 SCF Done:  E(RHF) =  -370.816214971     A.U. after   10 cycles
 E2 =    -0.4968086865D+00 EUMP2 =    -0.37131302365704D+03
 SCF Done:  E(RHF) =  -370.816259455     A.U. after    7 cycles
 E2 =    -0.4967649172D+00 EUMP2 =    -0.37131302437174D+03
 SCF Done:  E(RHF) =  -370.815565675     A.U. after   10 cycles
 E2 =    -0.4965507972D+00 EUMP2 =    -0.37131211647255D+03
 SCF Done:  E(RHF) =  -370.815637272     A.U. after    7 cycles
 E2 =    -0.4964806228D+00 EUMP2 =    -0.37131211789461D+03
 SCF Done:  E(RHF) =  -370.814689036     A.U. after   10 cycles
 E2 =    -0.4962165826D+00 EUMP2 =    -0.37131090561809D+03
 SCF Done:  E(RHF) =  -370.814768546     A.U. after    7 cycles
 E2 =    -0.4961388969D+00 EUMP2 =    -0.37131090744266D+03
 SCF Done:  E(RHF) =  -370.813589182     A.U. after   10 cycles
 E2 =    -0.4958459951D+00 EUMP2 =    -0.37130943517687D+03
 SCF Done:  E(RHF) =  -370.813676792     A.U. after    7 cycles
 E2 =    -0.4957607123D+00 EUMP2 =    -0.37130943750418D+03
 SCF Done:  E(RHF) =  -370.812295426     A.U. after   10 cycles
 E2 =    -0.4954583462D+00 EUMP2 =    -0.37130775377205D+03
 SCF Done:  E(RHF) =  -370.812384044     A.U. after    7 cycles
 E2 =    -0.4953722530D+00 EUMP2 =    -0.37130775629682D+03
 SCF Done:  E(RHF) =  -370.810833244     A.U. after   10 cycles
 E2 =    -0.4950776802D+00 EUMP2 =    -0.37130591092450D+03
 SCF Done:  E(RHF) =  -370.810916890     A.U. after    7 cycles
 E2 =    -0.4949964349D+00 EUMP2 =    -0.37130591332496D+03
 SCF Done:  E(RHF) =  -370.809230080     A.U. after   10 cycles
 E2 =    -0.4947243737D+00 EUMP2 =    -0.37130395445326D+03
 SCF Done:  E(RHF) =  -370.809304377     A.U. after    7 cycles
 E2 =    -0.4946521022D+00 EUMP2 =    -0.37130395647964D+03
 SCF Done:  E(RHF) =  -370.807513439     A.U. after   10 cycles
 E2 =    -0.4944143057D+00 EUMP2 =    -0.37130192774435D+03
 SCF Done:  E(RHF) =  -370.807575647     A.U. after    7 cycles
 E2 =    -0.4943536161D+00 EUMP2 =    -0.37130192926299D+03
    -- Stationary point found.
 SCF Done:  E(RHF) =  -370.805709206     A.U. after   10 cycles
 E2 =    -0.4941584596D+00 EUMP2 =    -0.37129986766527D+03
 SCF Done:  E(RHF) =  -370.805758032     A.U. after    6 cycles
 E2 =    -0.4941106249D+00 EUMP2 =    -0.37129986865672D+03
 Optimization completed.
    -- Stationary point found.

                         Standard orientation:
 ---------------------------------------------------------------------
 Center     Atomic      Atomic             Coordinates (Angstroms)
 Number     Number       Type             X           Y           Z
 ---------------------------------------------------------------------
      1          8           0       -2.955996    0.086286    0.082914
      2          1           0       -3.181033   -0.827016   -0.113510
      3         53           0        0.550470   -0.001756    0.002019
      4          1           0       -2.345897    0.229785   -0.656793
 ---------------------------------------------------------------------

 The electronic state is 1-A.
 Alpha  occ. eigenvalues --  -20.41940  -7.45568  -5.28125  -5.28107  -5.28074
 Alpha  occ. eigenvalues --   -2.00869  -2.00866  -2.00832  -2.00811  -2.00803
 Alpha  occ. eigenvalues --   -1.20433  -0.61421  -0.54943  -0.44925  -0.36256
 Alpha  occ. eigenvalues --   -0.13315  -0.13124  -0.12914
 Alpha virt. eigenvalues --    0.13163   0.15772   0.23653   0.24404   0.25951
 Alpha virt. eigenvalues --    0.26444   0.26847   0.29083   0.31582   0.33709
 Alpha virt. eigenvalues --    0.35175   0.36487   0.38103   0.39427   0.40528

 Mulliken charges:
               1
     1  O   -0.441167
     2  H    0.191903
     3  I   -0.969320
     4  H    0.218584
 Sum of Mulliken charges =  -1.00000

 Dipole moment (field-independent basis, Debye):
    X=             -1.3960    Y=             -1.0910    Z=             -0.9772  Tot=              2.0234
 Quadrupole moment (field-independent basis, Debye-Ang):
   XX=            -49.0720   YY=            -40.2072   ZZ=            -41.1050
   XY=              4.4364   XZ=              3.0411   YZ=             -0.1416

 Normal termination of Gaussian 16 at Tue Oct 19 16:59:29 2021.
