 Gaussian 09, Revision E.01,
 Gaussian 09:  ES64L-G09RevE.01 30-Nov-2015

 ----------------------------------------------------
 # opt=(z-matrix) mp2/gen Pseudo=read density=current
 ----------------------------------------------------

 -----
 title
 -----
 Symbolic Z-matrix:
 Charge = -1 Multiplicity = 1

 SCF Done:  E(RHF) =  -370.631321118     A.U. after   14 cycles
 E2 =    -0.5348859037D+00 EUMP2 =    -0.37116620702138D+03
 SCF Done:  E(RHF) =  -370.670567066     A.U. after   12 cycles
 E2 =    -0.5283130418D+00 EUMP2 =    -0.37119888010752D+03
 SCF Done:  E(RHF) =  -370.743376963     A.U. after   12 cycles
 E2 =    -0.5170162224D+00 EUMP2 =    -0.37126039318535D+03
 SCF Done:  E(RHF) =  -370.786543778     A.U. after   12 cycles
 E2 =    -0.4968482402D+00 EUMP2 =    -0.37128339201820D+03
 SCF Done:  E(RHF) =  -370.740507571     A.U. after   13 cycles
 E2 =    -0.5171753535D+00 EUMP2 =    -0.37125768292457D+03
 SCF Done:  E(RHF) =  -370.740593187     A.U. after   12 cycles
 E2 =    -0.5170685233D+00 EUMP2 =    -0.37125766170980D+03
 SCF Done:  E(RHF) =  -370.806493601     A.U. after    9 cycles
 E2 =    -0.5032027698D+00 EUMP2 =    -0.37130969637058D+03
 SCF Done:  E(RHF) =  -370.810446388     A.U. after   10 cycles
 E2 =    -0.5014744306D+00 EUMP2 =    -0.37131192081838D+03
 SCF Done:  E(RHF) =  -370.815815388     A.U. after   10 cycles
 E2 =    -0.4978900413D+00 EUMP2 =    -0.37131370542970D+03
 SCF Done:  E(RHF) =  -370.816695622     A.U. after    9 cycles
 E2 =    -0.4970781863D+00 EUMP2 =    -0.37131377380837D+03
 SCF Done:  E(RHF) =  -370.816766989     A.U. after    8 cycles
 E2 =    -0.4970114059D+00 EUMP2 =    -0.37131377839495D+03
 SCF Done:  E(RHF) =  -370.816779264     A.U. after    7 cycles
 E2 =    -0.4970006486D+00 EUMP2 =    -0.37131377991248D+03
 Optimization completed.
    -- Stationary point found.

                         Standard orientation:
 ---------------------------------------------------------------------
 Center     Atomic      Atomic             Coordinates (Angstroms)
 Number     Number       Type             X           Y           Z
 ---------------------------------------------------------------------
      1          8           0        0.014927    2.964057   -0.000000
      2          1           0       -0.925474    3.161516   -0.000000
      3         53           0        0.014927   -0.544447    0.000000
      4          1           0        0.014927    1.981717   -0.000000
 ---------------------------------------------------------------------

 The electronic state is 1-A'.
 Alpha  occ. eigenvalues --  -20.40297  -7.46690  -5.29245  -5.29219  -5.29215
 Alpha  occ. eigenvalues --   -2.01991  -2.01974  -2.01969  -2.01942  -2.01942
 Alpha  occ. eigenvalues --   -1.18471  -0.62865  -0.54128  -0.42868  -0.34718
 Alpha  occ. eigenvalues --   -0.14775  -0.14231  -0.14194
 Alpha virt. eigenvalues --    0.13217   0.16979   0.23337   0.24546   0.25246
 Alpha virt. eigenvalues --    0.26982   0.28790   0.29217   0.31262   0.33637
 Alpha virt. eigenvalues --    0.36678   0.37214   0.37587   0.39565   0.40947

 Mulliken charges:
               1
     1  O   -0.523619
     2  H    0.168561
     3  I   -0.913391
     4  H    0.268449
 Sum of Mulliken charges =  -1.00000

 Dipole moment (field-independent basis, Debye):
    X=             -1.3331    Y=             -0.0097    Z=              0.0000  Tot=              1.3331
 Quadrupole moment (field-independent basis, Debye-Ang):
   XX=            -39.5668   YY=            -51.5051   ZZ=            -41.8887
   XY=             -4.8027   XZ=              0.0000   YZ=              0.0000

 Normal termination of Gaussian 09 at Tue Oct 12 16:12:51 2021.
