 Gaussian 16, Revision B.01,
 Gaussian 16:  ES64L-G16RevB.01 20-Dec-2017

 --------------------------------------------------------
 #p pop=NBO SP NoSymm mp2/gen Pseudo=read density=current
 --------------------------------------------------------

 -----
 title
 -----
 Symbolic Z-matrix:
 Charge = -1 Multiplicity = 1

                          Input orientation:
 ---------------------------------------------------------------------
 Center     Atomic      Atomic             Coordinates (Angstroms)
 Number     Number       Type             X           Y           Z
 ---------------------------------------------------------------------
      1          8           0        0.000000    0.000000    0.000000
      2          1           0        0.960908    0.000000    0.000000
      3         53           0       -0.720970   -3.433625    0.000000
      4          1           0       -0.181941   -0.866495    0.412864
 ---------------------------------------------------------------------

 SCF Done:  E(RHF) =  -370.813676908     A.U. after   12 cycles
 E2 =    -0.4957605951D+00 EUMP2 =    -0.37130943750297D+03

 Alpha  occ. eigenvalues --  -20.40854  -7.46329  -5.28886  -5.28862  -5.28844
 Alpha  occ. eigenvalues --   -2.01629  -2.01621  -2.01605  -2.01575  -2.01572
 Alpha  occ. eigenvalues --   -1.19146  -0.62376  -0.54508  -0.43523  -0.35263
 Alpha  occ. eigenvalues --   -0.14287  -0.13875  -0.13778
 Alpha virt. eigenvalues --    0.13230   0.16653   0.23451   0.24488   0.25574
 Alpha virt. eigenvalues --    0.26962   0.27301   0.29207   0.32260   0.33300
 Alpha virt. eigenvalues --    0.36725   0.36852   0.37420   0.38936   0.40778

 Mulliken charges:
               1
     1  O   -0.484074
     2  H    0.178696
     3  I   -0.932856
     4  H    0.238233
 Sum of Mulliken charges =  -1.00000

 Dipole moment (field-independent basis, Debye):
    X=              4.2405    Y=             14.0763    Z=              0.3044  Tot=             14.7044
 Quadrupole moment (field-independent basis, Debye-Ang):
   XX=            -41.6117   YY=            -93.6282   ZZ=            -41.6151
   XY=            -10.2599   XZ=             -0.1031   YZ=             -0.1013

 Summary of Natural Population Analysis:

                                       Natural Population
                Natural  -----------------------------------------------
    Atom  No    Charge         Core      Valence    Rydberg      Total
 -----------------------------------------------------------------------
      O    1   -0.96552      1.99968     6.85831    0.10753     8.96552
      H    2    0.44760      0.00000     0.54562    0.00678     0.55240
      I    3   -0.96646     45.98399     7.81089    0.17158    53.96646
      H    4    0.48438      0.00000     0.49528    0.02034     0.51562
 =======================================================================
   * Total *   -1.00000     47.98367    15.71011    0.30622    64.00000

 Normal termination of Gaussian 16 at Tue Oct 26 12:34:16 2021.
