 Gaussian 09, Revision E.01,
 Gaussian 09:  ES64L-G09RevE.01 30-Nov-2015

 ----------------------------------------------------
 #p pop=NBO SP NoSymm mp2/aug-cc-pvtz density=current
 ----------------------------------------------------

 -----
 title
 -----
 Symbolic Z-matrix:
 Charge = -1 Multiplicity = 1

                          Input orientation:
 ---------------------------------------------------------------------
 Center     Atomic      Atomic             Coordinates (Angstroms)
 Number     Number       Type             X           Y           Z
 ---------------------------------------------------------------------
      1          8           0        0.000000    0.000000    0.000000
      2         17           0        1.684326    0.000000    0.000000
      3         35           0       -0.713413   -2.989882    0.000000
      4          1           0       -0.232093   -0.972693    0.000000
 ---------------------------------------------------------------------

 SCF Done:  E(RHF) =  -3107.47931772     A.U. after   13 cycles
 E2 =    -0.7032733167D+00 EUMP2 =    -0.31081825910323D+04

 Alpha  occ. eigenvalues -- -489.75499-104.73230 -64.89536 -58.24986 -58.24982
 Alpha  occ. eigenvalues --  -58.24982 -20.46189 -10.45178  -9.56791  -7.91895
 Alpha  occ. eigenvalues --   -7.91629  -7.91619  -7.17571  -7.17517  -7.17516
 Alpha  occ. eigenvalues --   -2.91740  -2.91715  -2.91713  -2.91655  -2.91655
 Alpha  occ. eigenvalues --   -1.23221  -0.89747  -0.73056  -0.54301  -0.44342
 Alpha  occ. eigenvalues --   -0.43530  -0.30918  -0.28173  -0.18533  -0.17550
 Alpha  occ. eigenvalues --   -0.17546
 Alpha virt. eigenvalues --    0.15595   0.18077   0.21586   0.22785   0.24128
 Alpha virt. eigenvalues --    0.24641   0.25016   0.28612   0.30325   0.31726
 Alpha virt. eigenvalues --    0.32331   0.32496   0.35869   0.43536   0.43698

 Mulliken charges:
               1
     1  O   -0.484934
     2  Cl   0.051023
     3  Br  -0.854783
     4  H    0.288694
 Sum of Mulliken charges =  -1.00000

 Dipole moment (field-independent basis, Debye):
    X=              1.8380    Y=             10.4661    Z=              0.0000  Tot=             10.6262
 Quadrupole moment (field-independent basis, Debye-Ang):
   XX=            -45.4273   YY=            -77.3043   ZZ=            -43.1789
   XY=             -8.5417   XZ=              0.0000   YZ=             -0.0000

 Summary of Natural Population Analysis:

                                       Natural Population
                Natural  -----------------------------------------------
    Atom  No    Charge         Core      Valence    Rydberg      Total
 -----------------------------------------------------------------------
      O    1   -0.76221      1.99968     6.65252    0.11000     8.76221
     Cl    2    0.15908      9.99981     6.69732    0.14379    16.84092
     Br    3   -0.86926     27.98805     7.72805    0.15316    35.86926
      H    4    0.47238      0.00000     0.49894    0.02867     0.52762
 =======================================================================
   * Total *   -1.00000     39.98754    21.57684    0.43562    62.00000

 Normal termination of Gaussian 09 at Tue Oct 12 14:24:17 2021.
