 Gaussian 09, Revision E.01,
 Gaussian 09:  ES64L-G09RevE.01 30-Nov-2015

 ----------------------------------------------------
 #p pop=NBO SP NoSymm mp2/aug-cc-pvtz density=current
 ----------------------------------------------------

 -----
 title
 -----
 Symbolic Z-matrix:
 Charge = -1 Multiplicity = 1

                          Input orientation:
 ---------------------------------------------------------------------
 Center     Atomic      Atomic             Coordinates (Angstroms)
 Number     Number       Type             X           Y           Z
 ---------------------------------------------------------------------
      1          8           0        0.000000    0.000000    0.000000
      2         17           0        1.684326    0.000000    0.000000
      3         35           0       -0.713413   -2.989882    0.000000
      4          1           0       -0.243698   -1.021328    0.000000
 ---------------------------------------------------------------------

 SCF Done:  E(RHF) =  -3107.47600226     A.U. after   13 cycles
 E2 =    -0.7062643977D+00 EUMP2 =    -0.31081822666617D+04

 Alpha  occ. eigenvalues -- -489.75950-104.72739 -64.89988 -58.25440 -58.25433
 Alpha  occ. eigenvalues --  -58.25432 -20.45778 -10.44691  -9.57243  -7.91408
 Alpha  occ. eigenvalues --   -7.91147  -7.91138  -7.18033  -7.17965  -7.17963
 Alpha  occ. eigenvalues --   -2.92207  -2.92173  -2.92171  -2.92095  -2.92095
 Alpha  occ. eigenvalues --   -1.21824  -0.88917  -0.73570  -0.52768  -0.43696
 Alpha  occ. eigenvalues --   -0.42873  -0.30390  -0.27629  -0.18962  -0.17956
 Alpha  occ. eigenvalues --   -0.17948
 Alpha virt. eigenvalues --    0.15665   0.18219   0.21545   0.22824   0.24103
 Alpha virt. eigenvalues --    0.24609   0.24993   0.28942   0.30437   0.32003
 Alpha virt. eigenvalues --    0.32348   0.32553   0.35930   0.43721   0.43727

 Mulliken charges:
               1
     1  O   -0.507673
     2  Cl   0.042751
     3  Br  -0.828684
     4  H    0.293606
 Sum of Mulliken charges =  -1.00000

 Dipole moment (field-independent basis, Debye):
    X=              1.6659    Y=             10.1193    Z=              0.0000  Tot=             10.2556
 Quadrupole moment (field-independent basis, Debye-Ang):
   XX=            -45.5306   YY=            -76.1759   ZZ=            -43.1529
   XY=             -8.2765   XZ=              0.0000   YZ=             -0.0000

 Summary of Natural Population Analysis:

                                       Natural Population
                Natural  -----------------------------------------------
    Atom  No    Charge         Core      Valence    Rydberg      Total
 -----------------------------------------------------------------------
      O    1   -0.77798      1.99971     6.66720    0.11106     8.77798
     Cl    2    0.15433      9.99979     6.70098    0.14490    16.84567
     Br    3   -0.83946     27.98793     7.69907    0.15246    35.83946
      H    4    0.46312      0.00000     0.50847    0.02842     0.53688
 =======================================================================
   * Total *   -1.00000     39.98744    21.57573    0.43683    62.00000

 Normal termination of Gaussian 09 at Tue Oct 12 14:24:34 2021.
