 Gaussian 09, Revision E.01,
 Gaussian 09:  ES64L-G09RevE.01 30-Nov-2015

 ----------------------------------------------------
 #p pop=NBO SP NoSymm mp2/aug-cc-pvtz density=current
 ----------------------------------------------------

 -----
 title
 -----
 Symbolic Z-matrix:
 Charge = -1 Multiplicity = 1

                          Input orientation:
 ---------------------------------------------------------------------
 Center     Atomic      Atomic             Coordinates (Angstroms)
 Number     Number       Type             X           Y           Z
 ---------------------------------------------------------------------
      1          8           0        0.000000    0.000000    0.000000
      2         17           0        1.684326    0.000000    0.000000
      3         35           0       -0.713413   -2.989882    0.000000
      4          1           0       -0.336535   -1.410406    0.000000
 ---------------------------------------------------------------------

 SCF Done:  E(RHF) =  -3107.43445351     A.U. after   12 cycles
 E2 =    -0.7196791020D+00 EUMP2 =    -0.31081541326167D+04

 Alpha  occ. eigenvalues -- -489.81666-104.67461 -64.95711 -58.31186 -58.31142
 Alpha  occ. eigenvalues --  -58.31142 -20.38039 -10.39443  -9.62994  -7.86151
 Alpha  occ. eigenvalues --   -7.85941  -7.85936  -7.23924  -7.23646  -7.23643
 Alpha  occ. eigenvalues --   -2.98162  -2.98007  -2.98004  -2.97668  -2.97668
 Alpha  occ. eigenvalues --   -1.11896  -0.82330  -0.79939  -0.42997  -0.36915
 Alpha  occ. eigenvalues --   -0.36009  -0.29111  -0.23055  -0.22957  -0.21404
 Alpha  occ. eigenvalues --   -0.20308
 Alpha virt. eigenvalues --    0.15715   0.19246   0.21240   0.22427   0.23283
 Alpha virt. eigenvalues --    0.25238   0.25609   0.29351   0.32010   0.33484
 Alpha virt. eigenvalues --    0.34297   0.34709   0.37438   0.41853   0.43338

 Mulliken charges:
               1
     1  O   -0.645483
     2  Cl  -0.028237
     3  Br  -0.493454
     4  H    0.167175
 Sum of Mulliken charges =  -1.00000

 Dipole moment (field-independent basis, Debye):
    X=             -0.0859    Y=              6.3303    Z=             -0.0000  Tot=              6.3308
 Quadrupole moment (field-independent basis, Debye-Ang):
   XX=            -46.2926   YY=            -63.7477   ZZ=            -42.7011
   XY=             -5.3379   XZ=             -0.0000   YZ=             -0.0000

 Summary of Natural Population Analysis:

                                       Natural Population
                Natural  -----------------------------------------------
    Atom  No    Charge         Core      Valence    Rydberg      Total
 -----------------------------------------------------------------------
      O    1   -0.86249      1.99986     6.74607    0.11656     8.86249
     Cl    2    0.09759      9.99976     6.74059    0.16206    16.90241
     Br    3   -0.54507     27.98700     7.41121    0.14686    35.54507
      H    4    0.30997      0.00000     0.66358    0.02644     0.69003
 =======================================================================
   * Total *   -1.00000     39.98661    21.56146    0.45192    62.00000

 Normal termination of Gaussian 09 at Tue Oct 12 14:26:50 2021.
