 Gaussian 09, Revision E.01,
 Gaussian 09:  ES64L-G09RevE.01 30-Nov-2015

 ----------------------------------------------------
 #p pop=NBO SP NoSymm mp2/aug-cc-pvtz density=current
 ----------------------------------------------------

 -----
 title
 -----
 Symbolic Z-matrix:
 Charge = -1 Multiplicity = 1

                          Input orientation:
 ---------------------------------------------------------------------
 Center     Atomic      Atomic             Coordinates (Angstroms)
 Number     Number       Type             X           Y           Z
 ---------------------------------------------------------------------
      1          8           0        0.000000    0.000000    0.000000
      2         17           0        1.684326    0.000000    0.000000
      3         35           0       -0.713413   -2.989882    0.000000
      4          1           0       -0.266907   -1.118598    0.000000
 ---------------------------------------------------------------------

 SCF Done:  E(RHF) =  -3107.46462707     A.U. after   13 cycles
 E2 =    -0.7119297892D+00 EUMP2 =    -0.31081765568551D+04

 Alpha  occ. eigenvalues -- -489.77065-104.71609 -64.91102 -58.26558 -58.26544
 Alpha  occ. eigenvalues --  -58.26544 -20.44485 -10.43569  -9.58358  -7.90284
 Alpha  occ. eigenvalues --   -7.90035  -7.90026  -7.19174  -7.19066  -7.19064
 Alpha  occ. eigenvalues --   -2.93358  -2.93304  -2.93302  -2.93175  -2.93175
 Alpha  occ. eigenvalues --   -1.19183  -0.87233  -0.74812  -0.49783  -0.42221
 Alpha  occ. eigenvalues --   -0.41379  -0.29315  -0.26366  -0.19891  -0.18932
 Alpha  occ. eigenvalues --   -0.18916
 Alpha virt. eigenvalues --    0.15783   0.18521   0.21462   0.22865   0.23970
 Alpha virt. eigenvalues --    0.24634   0.24997   0.29520   0.30741   0.32237
 Alpha virt. eigenvalues --    0.32578   0.32919   0.36154   0.43770   0.43854

 Mulliken charges:
               1
     1  O   -0.533775
     2  Cl   0.026173
     3  Br  -0.764417
     4  H    0.272018
 Sum of Mulliken charges =  -1.00000

 Dipole moment (field-independent basis, Debye):
    X=              1.2794    Y=              9.3138    Z=              0.0000  Tot=              9.4013
 Quadrupole moment (field-independent basis, Debye-Ang):
   XX=            -45.7274   YY=            -73.5264   ZZ=            -43.0712
   XY=             -7.6546   XZ=             -0.0000   YZ=              0.0000

 Summary of Natural Population Analysis:

                                       Natural Population
                Natural  -----------------------------------------------
    Atom  No    Charge         Core      Valence    Rydberg      Total
 -----------------------------------------------------------------------
      O    1   -0.80011      1.99977     6.68790    0.11244     8.80011
     Cl    2    0.14262      9.99977     6.70969    0.14792    16.85738
     Br    3   -0.77217     27.98769     7.63350    0.15098    35.77217
      H    4    0.42966      0.00000     0.54257    0.02776     0.57034
 =======================================================================
   * Total *   -1.00000     39.98723    21.57366    0.43911    62.00000

 Normal termination of Gaussian 09 at Tue Oct 12 14:25:08 2021.
