 Gaussian 16, Revision B.01,
 Gaussian 16:  ES64L-G16RevB.01 20-Dec-2017

 -------------------------------------------------
 #p opt=(z-matrix) mp2/aug-cc-pvtz density=current
 -------------------------------------------------

 -----
 title
 -----
 Symbolic Z-matrix:
 Charge = -1 Multiplicity = 1

 SCF Done:  E(RHF) =  -3107.14529602     A.U. after   13 cycles
 E2 =    -0.6828432389D+00 EUMP2 =    -0.31078281392617D+04
 Optimization completed.
    -- Stationary point found.
 SCF Done:  E(RHF) =  -3107.26766057     A.U. after   11 cycles
 E2 =    -0.6847578604D+00 EUMP2 =    -0.31079524184261D+04
 Optimization completed.
 SCF Done:  E(RHF) =  -3107.35082660     A.U. after   11 cycles
 E2 =    -0.6869136760D+00 EUMP2 =    -0.31080377402777D+04
 SCF Done:  E(RHF) =  -3107.40621573     A.U. after   11 cycles
 E2 =    -0.6892735901D+00 EUMP2 =    -0.31080954893180D+04
 SCF Done:  E(RHF) =  -3107.44182982     A.U. after   11 cycles
 E2 =    -0.6918125021D+00 EUMP2 =    -0.31081336423178D+04
 SCF Done:  E(RHF) =  -3107.46336322     A.U. after   11 cycles
 E2 =    -0.6945102877D+00 EUMP2 =    -0.31081578735030D+04
 SCF Done:  E(RHF) =  -3107.47492328     A.U. after   11 cycles
 E2 =    -0.6973437710D+00 EUMP2 =    -0.31081722670510D+04
 SCF Done:  E(RHF) =  -3107.47950573     A.U. after   11 cycles
 E2 =    -0.7002800374D+00 EUMP2 =    -0.31081797857677D+04
 SCF Done:  E(RHF) =  -3107.47931772     A.U. after   11 cycles
 E2 =    -0.7032733066D+00 EUMP2 =    -0.31081825910218D+04
 SCF Done:  E(RHF) =  -3107.47600226     A.U. after   11 cycles
 E2 =    -0.7062643903D+00 EUMP2 =    -0.31081822666541D+04
 E2 =    -0.7091797055D+00 EUMP2 =    -0.31081799740709D+04
 E2 =    -0.7119297842D+00 EUMP2 =    -0.31081765568502D+04
 E2 =    -0.7144108187D+00 EUMP2 =    -0.31081726112777D+04
 E2 =    -0.7165129758D+00 EUMP2 =    -0.31081685369146D+04
 E2 =    -0.7181362372D+00 EUMP2 =    -0.31081645768626D+04
 E2 =    -0.7192105267D+00 EUMP2 =    -0.31081608519655D+04
 E2 =    -0.7197135312D+00 EUMP2 =    -0.31081573880508D+04
 E2 =    -0.7196791066D+00 EUMP2 =    -0.31081541326213D+04
 E2 =    -0.7191923057D+00 EUMP2 =    -0.31081509582824D+04
 SCF Done:  E(RHF) =  -3107.42928120     A.U. after   11 cycles
 E2 =    -0.7183726400D+00 EUMP2 =    -0.31081476538401D+04
 SCF Done:  E(RHF) =  -3107.42655558     A.U. after   11 cycles
 E2 =    -0.7173516918D+00 EUMP2 =    -0.31081439072695D+04
 SCF Done:  E(RHF) =  -3107.42303305     A.U. after   11 cycles
 E2 =    -0.7162522791D+00 EUMP2 =    -0.31081392853303D+04
 SCF Done:  E(RHF) =  -3107.41803825     A.U. after   11 cycles
 E2 =    -0.7151742232D+00 EUMP2 =    -0.31081332124719D+04
 SCF Done:  E(RHF) =  -3107.41076017     A.U. after   11 cycles
 E2 =    -0.7141884113D+00 EUMP2 =    -0.31081249485848D+04
 SCF Done:  E(RHF) =  -3107.40022456     A.U. after   11 cycles
 E2 =    -0.7133383429D+00 EUMP2 =    -0.31081135629025D+04
 SCF Done:  E(RHF) =  -3107.38525308     A.U. after   11 cycles
 E2 =    -0.7126475456D+00 EUMP2 =    -0.31080979006248D+04
 SCF Done:  E(RHF) =  -3107.36440735     A.U. after   11 cycles
 E2 =    -0.7121316707D+00 EUMP2 =    -0.31080765390244D+04
 SCF Done:  E(RHF) =  -3107.33591499     A.U. after   11 cycles
 E2 =    -0.7118142440D+00 EUMP2 =    -0.31080477292346D+04
    -- Stationary point found.
 SCF Done:  E(RHF) =  -3107.29757335     A.U. after   11 cycles
 E2 =    -0.7117425415D+00 EUMP2 =    -0.31080093158874D+04
 Optimization completed.
    -- Stationary point found.

                         Standard orientation:
 ---------------------------------------------------------------------
 Center     Atomic      Atomic             Coordinates (Angstroms)
 Number     Number       Type             X           Y           Z
 ---------------------------------------------------------------------
      1          8           0        1.650459   -0.576314    0.000000
      2         17           0        1.047731   -2.149105    0.000000
      3         35           0       -0.886146    1.159772    0.000000
      4          1           0       -0.000000    0.553282    0.000000
 ---------------------------------------------------------------------

 The electronic state is 1-A'.
 Alpha  occ. eigenvalues -- -489.85725-104.63150 -65.00354 -58.35757 -58.35731
 Alpha  occ. eigenvalues --  -58.35730 -20.30810 -10.35144  -9.68460  -7.81843
 Alpha  occ. eigenvalues --   -7.81671  -7.81669  -7.29868  -7.28954  -7.28952
 Alpha  occ. eigenvalues --   -3.04231  -3.03490  -3.03487  -3.02870  -3.02870
 Alpha  occ. eigenvalues --   -1.05256  -0.94153  -0.76813  -0.47128  -0.31611
 Alpha  occ. eigenvalues --   -0.31477  -0.30265  -0.28137  -0.28060  -0.16302
 Alpha  occ. eigenvalues --   -0.16142
 Alpha virt. eigenvalues --    0.14641   0.19413   0.20814   0.21346   0.23150
 Alpha virt. eigenvalues --    0.26106   0.26722   0.28346   0.32863   0.35366
 Alpha virt. eigenvalues --    0.35942   0.38387   0.39621   0.41328   0.41591

 Mulliken charges:
               1
     1  O   -0.850668
     2  Cl  -0.118999
     3  Br  -0.268594
     4  H    0.238261
 Sum of Mulliken charges =  -1.00000

 Dipole moment (field-independent basis, Debye):
    X=             -5.0548    Y=              3.7001    Z=              0.0000  Tot=              6.2643
 Quadrupole moment (field-independent basis, Debye-Ang):
   XX=            -52.2996   YY=            -51.5352   ZZ=            -41.9816
   XY=              7.4298   XZ=              0.0000   YZ=              0.0000

 Normal termination of Gaussian 16 at Wed Dec  1 11:37:39 2021.
