 Gaussian 09, Revision E.01,
 Gaussian 09:  ES64L-G09RevE.01 30-Nov-2015

 ----------------------------------------------------
 #p pop=NBO SP NoSymm mp2/aug-cc-pvtz density=current
 ----------------------------------------------------

 -----
 title
 -----
 Symbolic Z-matrix:
 Charge = -1 Multiplicity = 1

                          Input orientation:
 ---------------------------------------------------------------------
 Center     Atomic      Atomic             Coordinates (Angstroms)
 Number     Number       Type             X           Y           Z
 ---------------------------------------------------------------------
      1          8           0        0.000000    0.000000    0.000000
      2         17           0        1.684326    0.000000    0.000000
      3         35           0       -0.713413   -2.989882    0.000000
      4          1           0       -0.313326   -1.313136    0.000000
 ---------------------------------------------------------------------

 SCF Done:  E(RHF) =  -3107.44164144     A.U. after   14 cycles
 E2 =    -0.7192105228D+00 EUMP2 =    -0.31081608519614D+04

 Alpha  occ. eigenvalues -- -489.80045-104.68870 -64.94081 -58.29551 -58.29516
 Alpha  occ. eigenvalues --  -58.29516 -20.40384 -10.40846  -9.61346  -7.87556
 Alpha  occ. eigenvalues --   -7.87333  -7.87326  -7.22234  -7.22017  -7.22015
 Alpha  occ. eigenvalues --   -2.96452  -2.96336  -2.96333  -2.96070  -2.96070
 Alpha  occ. eigenvalues --   -1.14180  -0.83785  -0.78135  -0.44702  -0.38700
 Alpha  occ. eigenvalues --   -0.37821  -0.28343  -0.23280  -0.21597  -0.21433
 Alpha  occ. eigenvalues --   -0.20805
 Alpha virt. eigenvalues --    0.15830   0.19073   0.21299   0.22658   0.23494
 Alpha virt. eigenvalues --    0.24991   0.25320   0.29615   0.31731   0.32810
 Alpha virt. eigenvalues --    0.33756   0.33978   0.36946   0.42598   0.43630

 Mulliken charges:
               1
     1  O   -0.596614
     2  Cl  -0.008515
     3  Br  -0.591991
     4  H    0.197120
 Sum of Mulliken charges =  -1.00000

 Dipole moment (field-independent basis, Debye):
    X=              0.3865    Y=              7.3738    Z=             -0.0000  Tot=              7.3839
 Quadrupole moment (field-independent basis, Debye-Ang):
   XX=            -46.1020   YY=            -67.1443   ZZ=            -42.8329
   XY=             -6.1477   XZ=             -0.0000   YZ=             -0.0000

 Summary of Natural Population Analysis:

                                       Natural Population
                Natural  -----------------------------------------------
    Atom  No    Charge         Core      Valence    Rydberg      Total
 -----------------------------------------------------------------------
      O    1   -0.83702      1.99984     6.72223    0.11496     8.83702
     Cl    2    0.11353      9.99976     6.72990    0.15681    16.88647
     Br    3   -0.61945     27.98725     7.48568    0.14652    35.61945
      H    4    0.34294      0.00000     0.62935    0.02771     0.65706
 =======================================================================
   * Total *   -1.00000     39.98684    21.56716    0.44600    62.00000

 Normal termination of Gaussian 09 at Tue Oct 12 14:26:16 2021.
