 Gaussian 09, Revision E.01,
 Gaussian 09:  ES64L-G09RevE.01 30-Nov-2015

 ----------------------------------------------------
 #p pop=NBO SP NoSymm mp2/aug-cc-pvtz density=current
 ----------------------------------------------------

 -----
 title
 -----
 Symbolic Z-matrix:
 Charge = -1 Multiplicity = 1

                          Input orientation:
 ---------------------------------------------------------------------
 Center     Atomic      Atomic             Coordinates (Angstroms)
 Number     Number       Type             X           Y           Z
 ---------------------------------------------------------------------
      1          8           0        0.000000    0.000000    0.000000
      2         17           0        1.684326    0.000000    0.000000
      3         35           0       -0.713413   -2.989882    0.000000
      4          1           0       -0.348140   -1.459040    0.000000
 ---------------------------------------------------------------------

 SCF Done:  E(RHF) =  -3107.43176598     A.U. after   13 cycles
 E2 =    -0.7191923019D+00 EUMP2 =    -0.31081509582787D+04

 Alpha  occ. eigenvalues -- -489.82429-104.66804 -64.96483 -58.31959 -58.31912
 Alpha  occ. eigenvalues --  -58.31911 -20.36920 -10.38789  -9.63782  -7.85495
 Alpha  occ. eigenvalues --   -7.85291  -7.85287  -7.24733  -7.24425  -7.24422
 Alpha  occ. eigenvalues --   -2.98981  -2.98805  -2.98802  -2.98434  -2.98433
 Alpha  occ. eigenvalues --   -1.10859  -0.82149  -0.80409  -0.42453  -0.36088
 Alpha  occ. eigenvalues --   -0.35168  -0.29663  -0.23695  -0.23637  -0.20659
 Alpha  occ. eigenvalues --   -0.19859
 Alpha virt. eigenvalues --    0.15626   0.19301   0.21212   0.22300   0.23206
 Alpha virt. eigenvalues --    0.25359   0.25761   0.29205   0.32135   0.33778
 Alpha virt. eigenvalues --    0.34541   0.35114   0.37690   0.41607   0.43147

 Mulliken charges:
               1
     1  O   -0.672252
     2  Cl  -0.038753
     3  Br  -0.444380
     4  H    0.155385
 Sum of Mulliken charges =  -1.00000

 Dipole moment (field-independent basis, Debye):
    X=             -0.3208    Y=              5.8116    Z=             -0.0000  Tot=              5.8204
 Quadrupole moment (field-independent basis, Debye-Ang):
   XX=            -46.3889   YY=            -62.0666   ZZ=            -42.6354
   XY=             -4.9354   XZ=             -0.0000   YZ=              0.0000

 Summary of Natural Population Analysis:

                                       Natural Population
                Natural  -----------------------------------------------
    Atom  No    Charge         Core      Valence    Rydberg      Total
 -----------------------------------------------------------------------
      O    1   -0.87771      1.99987     6.76021    0.11763     8.87771
     Cl    2    0.08940      9.99976     6.74619    0.16464    16.91060
     Br    3   -0.50707     27.98685     7.37459    0.14563    35.50707
      H    4    0.29537      0.00000     0.67742    0.02720     0.70463
 =======================================================================
   * Total *   -1.00000     39.98648    21.55842    0.45511    62.00000

 Normal termination of Gaussian 09 at Tue Oct 12 14:27:08 2021.
