 Gaussian 09, Revision E.01,
 Gaussian 09:  ES64L-G09RevE.01 30-Nov-2015

 -------------------------------------------------
 #p opt=(z-matrix) mp2/aug-cc-pvtz density=current
 -------------------------------------------------

 -----
 title
 -----
 Symbolic Z-matrix:
 Charge = -1 Multiplicity = 1

 SCF Done:  E(RHF) =  -3107.47836361     A.U. after   13 cycles
 E2 =    -0.7044015457D+00 EUMP2 =    -0.31081827651576D+04
 SCF Done:  E(RHF) =  -3107.47844628     A.U. after    9 cycles
 E2 =    -0.7043199301D+00 EUMP2 =    -0.31081827662096D+04
 SCF Done:  E(RHF) =  -3107.47842829     A.U. after    8 cycles
 E2 =    -0.7043380858D+00 EUMP2 =    -0.31081827663731D+04
 Optimization completed.
    -- Stationary point found.

                         Standard orientation:
 ---------------------------------------------------------------------
 Center     Atomic      Atomic             Coordinates (Angstroms)
 Number     Number       Type             X           Y           Z
 ---------------------------------------------------------------------
      1          8           0        0.582791    1.631692    0.000000
      2         17           0        2.149769    1.014007    0.000000
      3         35           0       -1.177383   -0.888257    0.000000
      4          1           0        0.000000    0.797340    0.000000
 ---------------------------------------------------------------------

 The electronic state is 1-A'.
 Alpha  occ. eigenvalues -- -489.75651-104.73061 -64.89689 -58.25139 -58.25134
 Alpha  occ. eigenvalues --  -58.25134 -20.46061 -10.45011  -9.56944  -7.91727
 Alpha  occ. eigenvalues --   -7.91464  -7.91454  -7.17727  -7.17668  -7.17667
 Alpha  occ. eigenvalues --   -2.91898  -2.91870  -2.91868  -2.91804  -2.91804
 Alpha  occ. eigenvalues --   -1.22717  -0.89453  -0.73230  -0.53756  -0.44120
 Alpha  occ. eigenvalues --   -0.43303  -0.30733  -0.27986  -0.18681  -0.17688
 Alpha  occ. eigenvalues --   -0.17682
 Alpha virt. eigenvalues --    0.15620   0.18126   0.21571   0.22800   0.24121
 Alpha virt. eigenvalues --    0.24627   0.25007   0.28728   0.30364   0.31823
 Alpha virt. eigenvalues --    0.32360   0.32491   0.35887   0.43610   0.43706

 Mulliken charges:
               1
     1  O   -0.494227
     2  Cl   0.048102
     3  Br  -0.845960
     4  H    0.292085
 Sum of Mulliken charges =  -1.00000

 Dipole moment (field-independent basis, Debye):
    X=              2.6501    Y=              1.1370    Z=              0.0000  Tot=              2.8837
 Quadrupole moment (field-independent basis, Debye-Ang):
   XX=            -50.7411   YY=            -50.4242   ZZ=            -43.1709
   XY=             -7.3555   XZ=              0.0000   YZ=              0.0000

 Normal termination of Gaussian 09 at Tue Oct 12 13:28:42 2021.
