 Gaussian 09, Revision E.01,
 Gaussian 09:  ES64L-G09RevE.01 30-Nov-2015

 ----------------------------------------------------
 #p pop=NBO SP NoSymm mp2/aug-cc-pvtz density=current
 ----------------------------------------------------

 -----
 title
 -----
 Symbolic Z-matrix:
 Charge = -1 Multiplicity = 1

                          Input orientation:
 ---------------------------------------------------------------------
 Center     Atomic      Atomic             Coordinates (Angstroms)
 Number     Number       Type             X           Y           Z
 ---------------------------------------------------------------------
      1          8           0        0.000000    0.000000    0.000000
      2         17           0        1.684326    0.000000    0.000000
      3         35           0       -0.713413   -2.989882    0.000000
      4          1           0       -0.174070   -0.729520    0.000000
 ---------------------------------------------------------------------

 SCF Done:  E(RHF) =  -3107.40621573     A.U. after   12 cycles
 E2 =    -0.6892735989D+00 EUMP2 =    -0.31080954893304D+04

 Alpha  occ. eigenvalues -- -489.74067-104.75088 -64.88098 -58.23546 -58.23546
 Alpha  occ. eigenvalues --  -58.23543 -20.46091 -10.47009  -9.55347  -7.93729
 Alpha  occ. eigenvalues --   -7.93446  -7.93435  -7.16098  -7.16086  -7.16085
 Alpha  occ. eigenvalues --   -2.90260  -2.90256  -2.90254  -2.90244  -2.90244
 Alpha  occ. eigenvalues --   -1.32269  -0.93976  -0.71327  -0.61640  -0.46846
 Alpha  occ. eigenvalues --   -0.46068  -0.33086  -0.30222  -0.16949  -0.16188
 Alpha  occ. eigenvalues --   -0.16187
 Alpha virt. eigenvalues --    0.15217   0.17524   0.21799   0.22556   0.24172
 Alpha virt. eigenvalues --    0.24891   0.25196   0.27244   0.29668   0.30442
 Alpha virt. eigenvalues --    0.31615   0.32844   0.35854   0.42336   0.43740

 Mulliken charges:
               1
     1  O   -0.230220
     2  Cl   0.085935
     3  Br  -0.938110
     4  H    0.082395
 Sum of Mulliken charges =  -1.00000

 Dipole moment (field-independent basis, Debye):
    X=              2.4989    Y=             11.6652    Z=              0.0000  Tot=             11.9299
 Quadrupole moment (field-independent basis, Debye-Ang):
   XX=            -44.8366   YY=            -81.0003   ZZ=            -43.1512
   XY=             -9.4235   XZ=              0.0000   YZ=             -0.0000

 Summary of Natural Population Analysis:

                                       Natural Population
                Natural  -----------------------------------------------
    Atom  No    Charge         Core      Valence    Rydberg      Total
 -----------------------------------------------------------------------
      O    1   -0.61720      1.99936     6.51385    0.10399     8.61720
     Cl    2    0.17160      9.99989     6.68708    0.14144    16.82840
     Br    3   -0.96392     27.98843     7.81800    0.15749    35.96392
      H    4    0.40951      0.00000     0.56164    0.02884     0.59049
 =======================================================================
   * Total *   -1.00000     39.98767    21.58057    0.43176    62.00000

 Normal termination of Gaussian 09 at Tue Oct 12 14:22:53 2021.
