 Gaussian 09, Revision E.01,
 Gaussian 09:  ES64L-G09RevE.01 30-Nov-2015

 ----------------------------------------------------
 #p pop=NBO SP NoSymm mp2/aug-cc-pvtz density=current
 ----------------------------------------------------

 -----
 title
 -----
 Symbolic Z-matrix:
 Charge = -1 Multiplicity = 1

                          Input orientation:
 ---------------------------------------------------------------------
 Center     Atomic      Atomic             Coordinates (Angstroms)
 Number     Number       Type             X           Y           Z
 ---------------------------------------------------------------------
      1          8           0        0.000000    0.000000    0.000000
      2         17           0        1.684326    0.000000    0.000000
      3         35           0       -0.713413   -2.989882    0.000000
      4          1           0       -0.301721   -1.264502    0.000000
 ---------------------------------------------------------------------

 SCF Done:  E(RHF) =  -3107.44644063     A.U. after   13 cycles
 E2 =    -0.7181362390D+00 EUMP2 =    -0.31081645768641D+04

 Alpha  occ. eigenvalues -- -489.79235-104.69589 -64.93270 -58.28736 -58.28707
 Alpha  occ. eigenvalues --  -58.28707 -20.41537 -10.41561  -9.60531  -7.88272
 Alpha  occ. eigenvalues --   -7.88042  -7.88035  -7.21398  -7.21211  -7.21210
 Alpha  occ. eigenvalues --   -2.95607  -2.95509  -2.95506  -2.95280  -2.95280
 Alpha  occ. eigenvalues --   -1.15395  -0.84634  -0.77219  -0.45804  -0.39618
 Alpha  occ. eigenvalues --   -0.38749  -0.28285  -0.24078  -0.21076  -0.20777
 Alpha  occ. eigenvalues --   -0.20616
 Alpha virt. eigenvalues --    0.15851   0.18955   0.21336   0.22749   0.23618
 Alpha virt. eigenvalues --    0.24876   0.25198   0.29703   0.31538   0.32510
 Alpha virt. eigenvalues --    0.33467   0.33666   0.36716   0.43042   0.43717

 Mulliken charges:
               1
     1  O   -0.576229
     2  Cl   0.000628
     3  Br  -0.639347
     4  H    0.214949
 Sum of Mulliken charges =  -1.00000

 Dipole moment (field-independent basis, Debye):
    X=              0.6192    Y=              7.8857    Z=              0.0000  Tot=              7.9100
 Quadrupole moment (field-independent basis, Debye-Ang):
   XX=            -46.0086   YY=            -68.8206   ZZ=            -42.8976
   XY=             -6.5454   XZ=              0.0000   YZ=              0.0000

 Summary of Natural Population Analysis:

                                       Natural Population
                Natural  -----------------------------------------------
    Atom  No    Charge         Core      Valence    Rydberg      Total
 -----------------------------------------------------------------------
      O    1   -0.82639      1.99982     6.71238    0.11418     8.82639
     Cl    2    0.12124      9.99976     6.72469    0.15432    16.87876
     Br    3   -0.65854     27.98736     7.52340    0.14778    35.65854
      H    4    0.36369      0.00000     0.60884    0.02746     0.63631
 =======================================================================
   * Total *   -1.00000     39.98694    21.56932    0.44374    62.00000

 Normal termination of Gaussian 09 at Tue Oct 12 14:25:59 2021.
