 Gaussian 09, Revision E.01,
 Gaussian 09:  ES64L-G09RevE.01 30-Nov-2015

 ----------------------------------------------------
 #p pop=NBO SP NoSymm mp2/aug-cc-pvtz density=current
 ----------------------------------------------------

 -----
 title
 -----
 Symbolic Z-matrix:
 Charge = -1 Multiplicity = 1

                          Input orientation:
 ---------------------------------------------------------------------
 Center     Atomic      Atomic             Coordinates (Angstroms)
 Number     Number       Type             X           Y           Z
 ---------------------------------------------------------------------
      1          8           0        0.000000    0.000000    0.000000
      2         17           0        1.684326    0.000000    0.000000
      3         35           0       -0.713413   -2.989882    0.000000
      4          1           0       -0.278512   -1.167232    0.000000
 ---------------------------------------------------------------------

 SCF Done:  E(RHF) =  -3107.45820046     A.U. after   13 cycles
 E2 =    -0.7144108216D+00 EUMP2 =    -0.31081726112804D+04

 Alpha  occ. eigenvalues -- -489.77729-104.70972 -64.91765 -58.27225 -58.27206
 Alpha  occ. eigenvalues --  -58.27205 -20.43618 -10.42936  -9.59022  -7.89650
 Alpha  occ. eigenvalues --   -7.89407  -7.89398  -7.19853  -7.19722  -7.19720
 Alpha  occ. eigenvalues --   -2.94045  -2.93978  -2.93975  -2.93819  -2.93818
 Alpha  occ. eigenvalues --   -1.17903  -0.86372  -0.75546  -0.48369  -0.41396
 Alpha  occ. eigenvalues --   -0.40545  -0.28835  -0.25647  -0.20344  -0.19503
 Alpha  occ. eigenvalues --   -0.19477
 Alpha virt. eigenvalues --    0.15824   0.18673   0.21419   0.22854   0.23865
 Alpha virt. eigenvalues --    0.24692   0.25034   0.29682   0.30989   0.32237
 Alpha virt. eigenvalues --    0.32874   0.33141   0.36315   0.43727   0.43779

 Mulliken charges:
               1
     1  O   -0.545342
     2  Cl   0.017856
     3  Br  -0.726195
     4  H    0.253681
 Sum of Mulliken charges =  -1.00000

 Dipole moment (field-independent basis, Debye):
    X=              1.0679    Y=              8.8617    Z=              0.0000  Tot=              8.9258
 Quadrupole moment (field-independent basis, Debye-Ang):
   XX=            -45.8222   YY=            -72.0338   ZZ=            -43.0184
   XY=             -7.3037   XZ=              0.0000   YZ=             -0.0000

 Summary of Natural Population Analysis:

                                       Natural Population
                Natural  -----------------------------------------------
    Atom  No    Charge         Core      Valence    Rydberg      Total
 -----------------------------------------------------------------------
      O    1   -0.80869      1.99979     6.69594    0.11297     8.80869
     Cl    2    0.13587      9.99976     6.71453    0.14983    16.86413
     Br    3   -0.73547     27.98758     7.59783    0.15005    35.73547
      H    4    0.40829      0.00000     0.56420    0.02752     0.59171
 =======================================================================
   * Total *   -1.00000     39.98713    21.57250    0.44037    62.00000

 Normal termination of Gaussian 09 at Tue Oct 12 14:25:25 2021.
