 Gaussian 09, Revision E.01,
 Gaussian 09:  ES64L-G09RevE.01 30-Nov-2015

 ----------------------------------------------------
 #p pop=NBO SP NoSymm mp2/aug-cc-pvtz density=current
 ----------------------------------------------------

 -----
 title
 -----
 Symbolic Z-matrix:
 Charge = -1 Multiplicity = 1

                          Input orientation:
 ---------------------------------------------------------------------
 Center     Atomic      Atomic             Coordinates (Angstroms)
 Number     Number       Type             X           Y           Z
 ---------------------------------------------------------------------
      1          8           0        0.000000    0.000000    0.000000
      2         17           0        1.684326    0.000000    0.000000
      3         35           0       -0.713413   -2.989882    0.000000
      4          1           0       -0.185675   -0.778155    0.000000
 ---------------------------------------------------------------------

 SCF Done:  E(RHF) =  -3107.44182982     A.U. after   12 cycles
 E2 =    -0.6918125132D+00 EUMP2 =    -0.31081336423315D+04

 Alpha  occ. eigenvalues -- -489.74266-104.74778 -64.88299 -58.23747 -58.23747
 Alpha  occ. eigenvalues --  -58.23745 -20.46356 -10.46705  -9.55549  -7.93425
 Alpha  occ. eigenvalues --   -7.93145  -7.93133  -7.16304  -7.16287  -7.16286
 Alpha  occ. eigenvalues --   -2.90466  -2.90460  -2.90458  -2.90444  -2.90443
 Alpha  occ. eigenvalues --   -1.30060  -0.93111  -0.71582  -0.60274  -0.46419
 Alpha  occ. eigenvalues --   -0.45641  -0.32717  -0.29880  -0.17196  -0.16389
 Alpha  occ. eigenvalues --   -0.16388
 Alpha virt. eigenvalues --    0.15291   0.17615   0.21756   0.22599   0.24158
 Alpha virt. eigenvalues --    0.24849   0.25159   0.27474   0.29815   0.30689
 Alpha virt. eigenvalues --    0.31759   0.32799   0.35849   0.42560   0.43710

 Mulliken charges:
               1
     1  O   -0.280064
     2  Cl   0.079857
     3  Br  -0.926764
     4  H    0.126970
 Sum of Mulliken charges =  -1.00000

 Dipole moment (field-independent basis, Debye):
    X=              2.3892    Y=             11.4876    Z=              0.0000  Tot=             11.7334
 Quadrupole moment (field-independent basis, Debye-Ang):
   XX=            -44.9663   YY=            -80.4920   ZZ=            -43.1765
   XY=             -9.2995   XZ=             -0.0000   YZ=             -0.0000

 Summary of Natural Population Analysis:

                                       Natural Population
                Natural  -----------------------------------------------
    Atom  No    Charge         Core      Valence    Rydberg      Total
 -----------------------------------------------------------------------
      O    1   -0.65583      1.99946     6.55142    0.10494     8.65583
     Cl    2    0.17043      9.99987     6.68810    0.14160    16.82957
     Br    3   -0.95287     27.98840     7.80786    0.15662    35.95287
      H    4    0.43827      0.00000     0.53299    0.02875     0.56173
 =======================================================================
   * Total *   -1.00000     39.98773    21.58037    0.43190    62.00000

 Normal termination of Gaussian 09 at Tue Oct 12 14:23:10 2021.
