 Gaussian 09, Revision E.01,
 Gaussian 09:  ES64L-G09RevE.01 30-Nov-2015

 ----------------------------------------------------
 #p pop=NBO SP NoSymm mp2/aug-cc-pvtz density=current
 ----------------------------------------------------

 -----
 title
 -----
 Symbolic Z-matrix:
 Charge = -1 Multiplicity = 1

                          Input orientation:
 ---------------------------------------------------------------------
 Center     Atomic      Atomic             Coordinates (Angstroms)
 Number     Number       Type             X           Y           Z
 ---------------------------------------------------------------------
      1          8           0        0.000000    0.000000    0.000000
      2         17           0        1.684326    0.000000    0.000000
      3         35           0       -0.713413   -2.989882    0.000000
      4          1           0       -0.220489   -0.924059    0.000000
 ---------------------------------------------------------------------

 SCF Done:  E(RHF) =  -3107.47950573     A.U. after   13 cycles
 E2 =    -0.7002800471D+00 EUMP2 =    -0.31081797857782D+04

 Alpha  occ. eigenvalues -- -489.75111-104.73674 -64.89148 -58.24597 -58.24595
 Alpha  occ. eigenvalues --  -58.24594 -20.46444 -10.45617  -9.56402  -7.92335
 Alpha  occ. eigenvalues --   -7.92065  -7.92055  -7.17174  -7.17133  -7.17131
 Alpha  occ. eigenvalues --   -2.91340  -2.91321  -2.91319  -2.91277  -2.91277
 Alpha  occ. eigenvalues --   -1.24708  -0.90576  -0.72607  -0.55836  -0.44931
 Alpha  occ. eigenvalues --   -0.44130  -0.31418  -0.28664  -0.18142  -0.17196
 Alpha  occ. eigenvalues --   -0.17193
 Alpha virt. eigenvalues --    0.15520   0.17945   0.21627   0.22739   0.24137
 Alpha virt. eigenvalues --    0.24691   0.25047   0.28293   0.30213   0.31457
 Alpha virt. eigenvalues --    0.32195   0.32572   0.35839   0.43301   0.43684

 Mulliken charges:
               1
     1  O   -0.449742
     2  Cl   0.059056
     3  Br  -0.877260
     4  H    0.267946
 Sum of Mulliken charges =  -1.00000

 Dipole moment (field-independent basis, Debye):
    X=              1.9955    Y=             10.7743    Z=             -0.0000  Tot=             10.9575
 Quadrupole moment (field-independent basis, Debye-Ang):
   XX=            -45.3197   YY=            -78.2948   ZZ=            -43.1942
   XY=             -8.7752   XZ=             -0.0000   YZ=              0.0000

 Summary of Natural Population Analysis:

                                       Natural Population
                Natural  -----------------------------------------------
    Atom  No    Charge         Core      Valence    Rydberg      Total
 -----------------------------------------------------------------------
      O    1   -0.74228      1.99964     6.63393    0.10871     8.74228
     Cl    2    0.16303      9.99982     6.69420    0.14294    16.83697
     Br    3   -0.89593     27.98817     7.75383    0.15393    35.89593
      H    4    0.47518      0.00000     0.49601    0.02881     0.52482
 =======================================================================
   * Total *   -1.00000     39.98763    21.57798    0.43439    62.00000

 Normal termination of Gaussian 09 at Tue Oct 12 14:24:00 2021.
