 Gaussian 09, Revision E.01,
 Gaussian 09:  ES64L-G09RevE.01 30-Nov-2015

 ----------------------------------------------------
 #p pop=NBO SP NoSymm mp2/aug-cc-pvtz density=current
 ----------------------------------------------------

 -----
 title
 -----
 Symbolic Z-matrix:
 Charge = -1 Multiplicity = 1

                          Input orientation:
 ---------------------------------------------------------------------
 Center     Atomic      Atomic             Coordinates (Angstroms)
 Number     Number       Type             X           Y           Z
 ---------------------------------------------------------------------
      1          8           0        0.000000    0.000000    0.000000
      2         17           0        1.684326    0.000000    0.000000
      3         35           0       -0.713413   -2.989882    0.000000
      4          1           0       -0.255303   -1.069963    0.000000
 ---------------------------------------------------------------------

 SCF Done:  E(RHF) =  -3107.47079437     A.U. after   13 cycles
 E2 =    -0.7091797121D+00 EUMP2 =    -0.31081799740775D+04

 Alpha  occ. eigenvalues -- -489.76472-104.72199 -64.90509 -58.25963 -58.25953
 Alpha  occ. eigenvalues --  -58.25952 -20.45209 -10.44155  -9.57765  -7.90871
 Alpha  occ. eigenvalues --   -7.90616  -7.90607  -7.18567  -7.18480  -7.18478
 Alpha  occ. eigenvalues --   -2.92745  -2.92702  -2.92700  -2.92601  -2.92600
 Alpha  occ. eigenvalues --   -1.20485  -0.88081  -0.74154  -0.51256  -0.42989
 Alpha  occ. eigenvalues --   -0.42156  -0.29847  -0.27027  -0.19421  -0.18416
 Alpha  occ. eigenvalues --   -0.18405
 Alpha virt. eigenvalues --    0.15729   0.18368   0.21504   0.22853   0.24051
 Alpha virt. eigenvalues --    0.24605   0.24985   0.29258   0.30565   0.32284
 Alpha virt. eigenvalues --    0.32287   0.32721   0.36025   0.43747   0.43843

 Mulliken charges:
               1
     1  O   -0.522393
     2  Cl   0.034449
     3  Br  -0.798615
     4  H    0.286558
 Sum of Mulliken charges =  -1.00000

 Dipole moment (field-independent basis, Debye):
    X=              1.4794    Y=              9.7345    Z=              0.0000  Tot=              9.8463
 Quadrupole moment (field-independent basis, Debye-Ang):
   XX=            -45.6305   YY=            -74.9130   ZZ=            -43.1166
   XY=             -7.9801   XZ=             -0.0000   YZ=             -0.0000

 Summary of Natural Population Analysis:

                                       Natural Population
                Natural  -----------------------------------------------
    Atom  No    Charge         Core      Valence    Rydberg      Total
 -----------------------------------------------------------------------
      O    1   -0.79027      1.99974     6.67868    0.11185     8.79027
     Cl    2    0.14881      9.99978     6.70513    0.14627    16.85119
     Br    3   -0.80698     27.98781     7.66741    0.15176    35.80698
      H    4    0.44843      0.00000     0.52348    0.02809     0.55157
 =======================================================================
   * Total *   -1.00000     39.98733    21.57470    0.43797    62.00000

 Normal termination of Gaussian 09 at Tue Oct 12 14:24:51 2021.
