 Gaussian 09, Revision E.01,
 Gaussian 09:  ES64L-G09RevE.01 30-Nov-2015

 ----------------------------------------------------
 #p pop=NBO SP NoSymm mp2/aug-cc-pvtz density=current
 ----------------------------------------------------

 -----
 title
 -----
 Symbolic Z-matrix:
 Charge = -1 Multiplicity = 1

                          Input orientation:
 ---------------------------------------------------------------------
 Center     Atomic      Atomic             Coordinates (Angstroms)
 Number     Number       Type             X           Y           Z
 ---------------------------------------------------------------------
      1          8           0        0.000000    0.000000    0.000000
      2         17           0        1.684326    0.000000    0.000000
      3         35           0       -0.713413   -2.989882    0.000000
      4          1           0       -0.290117   -1.215867    0.000000
 ---------------------------------------------------------------------

 SCF Done:  E(RHF) =  -3107.45202394     A.U. after   13 cycles
 E2 =    -0.7165129773D+00 EUMP2 =    -0.31081685369159D+04

 Alpha  occ. eigenvalues -- -489.78457-104.70294 -64.92492 -58.27955 -58.27931
 Alpha  occ. eigenvalues --  -58.27931 -20.42627 -10.42263  -9.59750  -7.88975
 Alpha  occ. eigenvalues --   -7.88739  -7.88731  -7.20599  -7.20441  -7.20439
 Alpha  occ. eigenvalues --   -2.94799  -2.94717  -2.94714  -2.94524  -2.94524
 Alpha  occ. eigenvalues --   -1.16640  -0.85502  -0.76351  -0.47035  -0.40523
 Alpha  occ. eigenvalues --   -0.39663  -0.28468  -0.24879  -0.20736  -0.20122
 Alpha  occ. eigenvalues --   -0.20073
 Alpha virt. eigenvalues --    0.15848   0.18820   0.21376   0.22815   0.23745
 Alpha virt. eigenvalues --    0.24775   0.25102   0.29735   0.31279   0.32316
 Alpha virt. eigenvalues --    0.33172   0.33389   0.36504   0.43445   0.43765

 Mulliken charges:
               1
     1  O   -0.559183
     2  Cl   0.009381
     3  Br  -0.684315
     4  H    0.234118
 Sum of Mulliken charges =  -1.00000

 Dipole moment (field-independent basis, Debye):
    X=              0.8470    Y=              8.3836    Z=              0.0000  Tot=              8.4263
 Quadrupole moment (field-independent basis, Debye-Ang):
   XX=            -45.9156   YY=            -70.4575   ZZ=            -42.9599
   XY=             -6.9323   XZ=             -0.0000   YZ=             -0.0000

 Summary of Natural Population Analysis:

                                       Natural Population
                Natural  -----------------------------------------------
    Atom  No    Charge         Core      Valence    Rydberg      Total
 -----------------------------------------------------------------------
      O    1   -0.81715      1.99981     6.70382    0.11352     8.81715
     Cl    2    0.12871      9.99976     6.71956    0.15197    16.87129
     Br    3   -0.69740     27.98747     7.56095    0.14898    35.69740
      H    4    0.38583      0.00000     0.58676    0.02740     0.61417
 =======================================================================
   * Total *   -1.00000     39.98704    21.57108    0.44188    62.00000

 Normal termination of Gaussian 09 at Tue Oct 12 14:25:42 2021.
