 Gaussian 16, Revision B.01,
 Gaussian 16:  ES64L-G16RevB.01 20-Dec-2017

 ----------------------------------------------------
 #p pop=NBO SP NoSymm mp2/aug-cc-pvtz density=current
 ----------------------------------------------------

 -----
 title
 -----
 Symbolic Z-matrix:
 Charge = -1 Multiplicity = 1

                          Input orientation:
 ---------------------------------------------------------------------
 Center     Atomic      Atomic             Coordinates (Angstroms)
 Number     Number       Type             X           Y           Z
 ---------------------------------------------------------------------
      1          8           0        0.000000    0.000000    0.000000
      2         17           0        1.684326    0.000000    0.000000
      3         35           0       -0.713413   -2.989882    0.000000
      4          1           0       -0.236210   -0.989946    0.000000
 ---------------------------------------------------------------------

 SCF Done:  E(RHF) =  -3107.47842829     A.U. after   13 cycles
 E2 =    -0.7043380911D+00 EUMP2 =    -0.31081827663780D+04

 Alpha  occ. eigenvalues -- -489.75651-104.73061 -64.89689 -58.25139 -58.25134
 Alpha  occ. eigenvalues --  -58.25134 -20.46061 -10.45011  -9.56944  -7.91727
 Alpha  occ. eigenvalues --   -7.91464  -7.91454  -7.17727  -7.17668  -7.17667
 Alpha  occ. eigenvalues --   -2.91898  -2.91870  -2.91868  -2.91804  -2.91804
 Alpha  occ. eigenvalues --   -1.22717  -0.89453  -0.73230  -0.53756  -0.44120
 Alpha  occ. eigenvalues --   -0.43303  -0.30733  -0.27986  -0.18681  -0.17688
 Alpha  occ. eigenvalues --   -0.17682
 Alpha virt. eigenvalues --    0.15620   0.18126   0.21571   0.22800   0.24121
 Alpha virt. eigenvalues --    0.24627   0.25007   0.28728   0.30364   0.31823
 Alpha virt. eigenvalues --    0.32360   0.32491   0.35887   0.43610   0.43706

 Mulliken charges:
               1
     1  O   -0.494227
     2  Cl   0.048102
     3  Br  -0.845960
     4  H    0.292085
 Sum of Mulliken charges =  -1.00000

 Dipole moment (field-independent basis, Debye):
    X=              1.7786    Y=             10.3475    Z=             -0.0000  Tot=             10.4992
 Quadrupole moment (field-independent basis, Debye-Ang):
   XX=            -45.4644   YY=            -76.9197   ZZ=            -43.1709
   XY=             -8.4512   XZ=             -0.0000   YZ=              0.0000

 Summary of Natural Population Analysis:

                                       Natural Population
                Natural  -----------------------------------------------
    Atom  No    Charge         Core      Valence    Rydberg      Total
 -----------------------------------------------------------------------
      O    1   -0.76825      1.99969     6.65815    0.11041     8.76825
     Cl    2    0.15748      9.99980     6.69856    0.14415    16.84252
     Br    3   -0.85902     27.98801     7.71811    0.15290    35.85902
      H    4    0.46979      0.00000     0.50162    0.02859     0.53021
 =======================================================================
   * Total *   -1.00000     39.98751    21.57644    0.43606    62.00000

 Normal termination of Gaussian 16 at Fri Oct 15 16:29:51 2021.
