 Gaussian 09, Revision E.01,
 Gaussian 09:  ES64L-G09RevE.01 30-Nov-2015

 ----------------------------------------------------
 #p pop=NBO SP NoSymm mp2/aug-cc-pvtz density=current
 ----------------------------------------------------

 -----
 title
 -----
 Symbolic Z-matrix:
 Charge = -1 Multiplicity = 1

                          Input orientation:
 ---------------------------------------------------------------------
 Center     Atomic      Atomic             Coordinates (Angstroms)
 Number     Number       Type             X           Y           Z
 ---------------------------------------------------------------------
      1          8           0        0.000000    0.000000    0.000000
      2         17           0        1.684326    0.000000    0.000000
      3         35           0       -0.713413   -2.989882    0.000000
      4          1           0       -0.208884   -0.875424    0.000000
 ---------------------------------------------------------------------

 SCF Done:  E(RHF) =  -3107.47492328     A.U. after   12 cycles
 E2 =    -0.6973437800D+00 EUMP2 =    -0.31081722670612D+04

 Alpha  occ. eigenvalues -- -489.74781-104.74076 -64.88817 -58.24265 -58.24265
 Alpha  occ. eigenvalues --  -58.24264 -20.46550 -10.46015  -9.56070  -7.92733
 Alpha  occ. eigenvalues --   -7.92460  -7.92449  -7.16835  -7.16804  -7.16803
 Alpha  occ. eigenvalues --   -2.90999  -2.90986  -2.90984  -2.90954  -2.90953
 Alpha  occ. eigenvalues --   -1.26317  -0.91410  -0.72216  -0.57355  -0.45469
 Alpha  occ. eigenvalues --   -0.44678  -0.31885  -0.29108  -0.17789  -0.16888
 Alpha  occ. eigenvalues --   -0.16886
 Alpha virt. eigenvalues --    0.15443   0.17824   0.21670   0.22692   0.24142
 Alpha virt. eigenvalues --    0.24746   0.25083   0.27996   0.30091   0.31195
 Alpha virt. eigenvalues --    0.32049   0.32658   0.35834   0.43048   0.43681

 Mulliken charges:
               1
     1  O   -0.400480
     2  Cl   0.066586
     3  Br  -0.896531
     4  H    0.230425
 Sum of Mulliken charges =  -1.00000

 Dipole moment (field-independent basis, Debye):
    X=              2.1390    Y=             11.0455    Z=             -0.0000  Tot=             11.2507
 Quadrupole moment (field-independent basis, Debye-Ang):
   XX=            -45.2074   YY=            -79.1507   ZZ=            -43.1985
   XY=             -8.9780   XZ=             -0.0000   YZ=              0.0000

 Summary of Natural Population Analysis:

                                       Natural Population
                Natural  -----------------------------------------------
    Atom  No    Charge         Core      Valence    Rydberg      Total
 -----------------------------------------------------------------------
      O    1   -0.71795      1.99960     6.61103    0.10733     8.71795
     Cl    2    0.16620      9.99984     6.69163    0.14232    16.83380
     Br    3   -0.91898     27.98826     7.77593    0.15479    35.91898
      H    4    0.47073      0.00000     0.50043    0.02883     0.52927
 =======================================================================
   * Total *   -1.00000     39.98770    21.57902    0.43327    62.00000

 Normal termination of Gaussian 09 at Tue Oct 12 14:23:43 2021.
