 Gaussian 09, Revision E.01,
 Gaussian 09:  ES64L-G09RevE.01 30-Nov-2015

 ----------------------------------------------------
 #p pop=NBO SP NoSymm mp2/aug-cc-pvtz density=current
 ----------------------------------------------------

 -----
 title
 -----
 Symbolic Z-matrix:
 Charge = -1 Multiplicity = 1

                          Input orientation:
 ---------------------------------------------------------------------
 Center     Atomic      Atomic             Coordinates (Angstroms)
 Number     Number       Type             X           Y           Z
 ---------------------------------------------------------------------
      1          8           0        0.000000    0.000000    0.000000
      2         17           0        1.684326    0.000000    0.000000
      3         35           0       -0.713413   -2.989882    0.000000
      4          1           0       -0.197279   -0.826789    0.000000
 ---------------------------------------------------------------------

 SCF Done:  E(RHF) =  -3107.46336322     A.U. after   12 cycles
 E2 =    -0.6945103000D+00 EUMP2 =    -0.31081578735171D+04

 Alpha  occ. eigenvalues -- -489.74502-104.74442 -64.88536 -58.23984 -58.23984
 Alpha  occ. eigenvalues --  -58.23983 -20.46516 -10.46376  -9.55788  -7.93095
 Alpha  occ. eigenvalues --   -7.92818  -7.92807  -7.16548  -7.16524  -7.16523
 Alpha  occ. eigenvalues --   -2.90710  -2.90701  -2.90699  -2.90678  -2.90678
 Alpha  occ. eigenvalues --   -1.28088  -0.92255  -0.71876  -0.58840  -0.45962
 Alpha  occ. eigenvalues --   -0.45179  -0.32318  -0.29511  -0.17475  -0.16620
 Alpha  occ. eigenvalues --   -0.16620
 Alpha virt. eigenvalues --    0.15366   0.17714   0.21713   0.22644   0.24148
 Alpha virt. eigenvalues --    0.24800   0.25121   0.27723   0.29958   0.30940
 Alpha virt. eigenvalues --    0.31904   0.32736   0.35840   0.42797   0.43690

 Mulliken charges:
               1
     1  O   -0.340819
     2  Cl   0.073487
     3  Br  -0.912954
     4  H    0.180286
 Sum of Mulliken charges =  -1.00000

 Dipole moment (field-independent basis, Debye):
    X=              2.2697    Y=             11.2822    Z=              0.0000  Tot=             11.5082
 Quadrupole moment (field-independent basis, Debye-Ang):
   XX=            -45.0898   YY=            -79.8795   ZZ=            -43.1925
   XY=             -9.1519   XZ=             -0.0000   YZ=              0.0000

 Summary of Natural Population Analysis:

                                       Natural Population
                Natural  -----------------------------------------------
    Atom  No    Charge         Core      Valence    Rydberg      Total
 -----------------------------------------------------------------------
      O    1   -0.68920      1.99954     6.58362    0.10604     8.68920
     Cl    2    0.16865      9.99986     6.68961    0.14189    16.83135
     Br    3   -0.93800     27.98834     7.79395    0.15570    35.93800
      H    4    0.45855      0.00000     0.51267    0.02878     0.54145
 =======================================================================
   * Total *   -1.00000     39.98774    21.57985    0.43241    62.00000

 Normal termination of Gaussian 09 at Tue Oct 12 14:23:26 2021.
