 Gaussian 09, Revision E.01,
 Gaussian 09:  ES64L-G09RevE.01 30-Nov-2015

 ----------------------------------------------------
 #p pop=NBO SP NoSymm mp2/aug-cc-pvtz density=current
 ----------------------------------------------------

 -----
 title
 -----
 Symbolic Z-matrix:
 Charge = -1 Multiplicity = 1

                          Input orientation:
 ---------------------------------------------------------------------
 Center     Atomic      Atomic             Coordinates (Angstroms)
 Number     Number       Type             X           Y           Z
 ---------------------------------------------------------------------
      1          8           0        0.000000    0.000000    0.000000
      2         17           0        1.684326    0.000000    0.000000
      3         35           0       -0.713413   -2.989882    0.000000
      4          1           0       -0.324931   -1.361771    0.000000
 ---------------------------------------------------------------------

 SCF Done:  E(RHF) =  -3107.43767452     A.U. after   14 cycles
 E2 =    -0.7197135252D+00 EUMP2 =    -0.31081573880448D+04

 Alpha  occ. eigenvalues -- -489.80864-104.68155 -64.94903 -58.30375 -58.30336
 Alpha  occ. eigenvalues --  -58.30335 -20.39205 -10.40134  -9.62175  -7.86843
 Alpha  occ. eigenvalues --   -7.86626  -7.86621  -7.23083  -7.22836  -7.22834
 Alpha  occ. eigenvalues --   -2.97311  -2.97176  -2.97174  -2.96873  -2.96873
 Alpha  occ. eigenvalues --   -1.13008  -0.82988  -0.79070  -0.43757  -0.37792
 Alpha  occ. eigenvalues --   -0.36900  -0.28639  -0.22697  -0.22265  -0.21883
 Alpha  occ. eigenvalues --   -0.20652
 Alpha virt. eigenvalues --    0.15784   0.19170   0.21268   0.22549   0.23380
 Alpha virt. eigenvalues --    0.25114   0.25460   0.29492   0.31878   0.33153
 Alpha virt. eigenvalues --    0.34034   0.34326   0.37188   0.42188   0.43502

 Mulliken charges:
               1
     1  O   -0.619946
     2  Cl  -0.018131
     3  Br  -0.543047
     4  H    0.181124
 Sum of Mulliken charges =  -1.00000

 Dipole moment (field-independent basis, Debye):
    X=              0.1508    Y=              6.8534    Z=              0.0000  Tot=              6.8550
 Quadrupole moment (field-independent basis, Debye-Ang):
   XX=            -46.1966   YY=            -65.4473   ZZ=            -42.7672
   XY=             -5.7437   XZ=             -0.0000   YZ=             -0.0000

 Summary of Natural Population Analysis:

                                       Natural Population
                Natural  -----------------------------------------------
    Atom  No    Charge         Core      Valence    Rydberg      Total
 -----------------------------------------------------------------------
      O    1   -0.84932      1.99985     6.73363    0.11584     8.84932
     Cl    2    0.10561      9.99976     6.73523    0.15940    16.89439
     Br    3   -0.58053     27.98713     7.44816    0.14524    35.58053
      H    4    0.32423      0.00000     0.64762    0.02815     0.67577
 =======================================================================
   * Total *   -1.00000     39.98673    21.56464    0.44863    62.00000

 Normal termination of Gaussian 09 at Tue Oct 12 14:26:34 2021.
