 Gaussian 16, Revision B.01,
 Gaussian 16:  ES64L-G16RevB.01 20-Dec-2017

 -------------------------------------------------
 #p opt=(z-matrix) mp2/aug-cc-pvtz density=current
 -------------------------------------------------

 -----
 title
 -----
 Symbolic Z-matrix:
 Charge = -1 Multiplicity = 1

 SCF Done:  E(RHF) =  -994.502452378     A.U. after   13 cycles
 E2 =    -0.6666624349D+00 EUMP2 =    -0.99516911481262D+03
 SCF Done:  E(RHF) =  -994.506124447     A.U. after   11 cycles
 E2 =    -0.6644770600D+00 EUMP2 =    -0.99517060150677D+03
 SCF Done:  E(RHF) =  -994.506456129     A.U. after    9 cycles
 E2 =    -0.6641707883D+00 EUMP2 =    -0.99517062691702D+03
 Optimization completed.
    -- Stationary point found.

                         Standard orientation:
 ---------------------------------------------------------------------
 Center     Atomic      Atomic             Coordinates (Angstroms)
 Number     Number       Type             X           Y           Z
 ---------------------------------------------------------------------
      1          8           0        0.675702    0.987860   -0.063271
      2         17           0        1.677674   -0.362549    0.000702
      3         17           0       -1.997795   -0.146419   -0.008790
      4          1           0        0.036442    0.749563    0.643672
 ---------------------------------------------------------------------

 The electronic state is 1-A.
 Alpha  occ. eigenvalues -- -104.73614-104.52571 -20.47448 -10.45583 -10.25021
 Alpha  occ. eigenvalues --   -7.92303  -7.92032  -7.92015  -7.71631  -7.71622
 Alpha  occ. eigenvalues --   -7.71620  -1.24642  -0.90209  -0.75972  -0.55331
 Alpha  occ. eigenvalues --   -0.45214  -0.44312  -0.31410  -0.28721  -0.17712
 Alpha  occ. eigenvalues --   -0.17335  -0.17157
 Alpha virt. eigenvalues --    0.15361   0.18011   0.22265   0.23200   0.26365
 Alpha virt. eigenvalues --    0.27538   0.28055   0.28810   0.29955   0.31860
 Alpha virt. eigenvalues --    0.32897   0.35146   0.40440   0.41399   0.45941

 Mulliken charges:
               1
     1  O   -0.382073
     2  Cl   0.069896
     3  Cl  -0.923903
     4  H    0.236080
 Sum of Mulliken charges =  -1.00000

 Dipole moment (field-independent basis, Debye):
    X=              6.8566    Y=              0.1996    Z=              0.7545  Tot=              6.9009
 Quadrupole moment (field-independent basis, Debye-Ang):
   XX=            -57.2054   YY=            -37.1320   ZZ=            -35.9263
   XY=             -2.8846   XZ=              0.0569   YZ=              0.8117

 Normal termination of Gaussian 16 at Thu Sep 16 14:56:21 2021.
