 Gaussian 16, Revision B.01,
 Gaussian 16:  ES64L-G16RevB.01 20-Dec-2017

 ----------------------------------------------------
 #p pop=NBO SP NoSymm mp2/aug-cc-pvtz density=current
 ----------------------------------------------------

 -----
 title
 -----
 Symbolic Z-matrix:
 Charge = -1 Multiplicity = 1

                          Input orientation:
 ---------------------------------------------------------------------
 Center     Atomic      Atomic             Coordinates (Angstroms)
 Number     Number       Type             X           Y           Z
 ---------------------------------------------------------------------
      1          8           0        0.000000    0.000000    0.000000
      2         17           0        2.904676    0.000000    0.000000
      3         17           0       -0.393687    1.636049    0.000000
      4          1           0        0.629026    0.000000    0.749643
 ---------------------------------------------------------------------

 SCF Done:  E(RHF) =  -994.503472842     A.U. after   13 cycles
 E2 =    -0.6638341795D+00 EUMP2 =    -0.99516730702121D+03

 Alpha  occ. eigenvalues -- -104.73762-104.52255 -20.47757 -10.45735 -10.24701
 Alpha  occ. eigenvalues --   -7.92455  -7.92183  -7.92165  -7.71311  -7.71303
 Alpha  occ. eigenvalues --   -7.71300  -1.25018  -0.90376  -0.75603  -0.55638
 Alpha  occ. eigenvalues --   -0.45449  -0.44537  -0.31592  -0.28893  -0.17333
 Alpha  occ. eigenvalues --   -0.17017  -0.16821
 Alpha virt. eigenvalues --    0.15208   0.17925   0.22197   0.23203   0.26429
 Alpha virt. eigenvalues --    0.27565   0.27945   0.28875   0.29874   0.31772
 Alpha virt. eigenvalues --    0.32564   0.35244   0.40165   0.41537   0.45719

 Mulliken charges:
               1
     1  O   -0.373439
     2  Cl  -0.935535
     3  Cl   0.072134
     4  H    0.236840
 Sum of Mulliken charges =  -1.00000

 Dipole moment (field-independent basis, Debye):
    X=            -11.4583    Y=             -0.5583    Z=              0.7715  Tot=             11.4978
 Quadrupole moment (field-independent basis, Debye-Ang):
   XX=            -74.7553   YY=            -36.9189   ZZ=            -35.6677
   XY=              0.4994   XZ=              0.3711   YZ=             -0.2618

 Summary of Natural Population Analysis:

                                       Natural Population
                Natural  -----------------------------------------------
    Atom  No    Charge         Core      Valence    Rydberg      Total
 -----------------------------------------------------------------------
      O    1   -0.69217      1.99971     6.58166    0.11080     8.69217
     Cl    2   -0.96631     10.00008     7.81202    0.15421    17.96631
     Cl    3    0.16144      9.99984     6.69352    0.14520    16.83856
      H    4    0.49704      0.00000     0.48368    0.01928     0.50296
 =======================================================================
   * Total *   -1.00000     21.99963    21.57087    0.42950    44.00000

 Normal termination of Gaussian 16 at Wed Sep 22 16:33:28 2021.
