 Gaussian 16, Revision B.01,
 Gaussian 16:  ES64L-G16RevB.01 20-Dec-2017

 ----------------------------------------------------
 #p pop=NBO SP NoSymm mp2/aug-cc-pvtz density=current
 ----------------------------------------------------

 -----
 title
 -----
 Symbolic Z-matrix:
 Charge = -1 Multiplicity = 1

                          Input orientation:
 ---------------------------------------------------------------------
 Center     Atomic      Atomic             Coordinates (Angstroms)
 Number     Number       Type             X           Y           Z
 ---------------------------------------------------------------------
      1          8           0        0.000000    0.000000    0.000000
      2         17           0        2.904676    0.000000    0.000000
      3         17           0       -0.393687    1.636049    0.000000
      4          1           0        0.694549    0.000000    0.694549
 ---------------------------------------------------------------------

 SCF Done:  E(RHF) =  -994.506467331     A.U. after   13 cycles
 E2 =    -0.6641595150D+00 EUMP2 =    -0.99517062684550D+03

 Alpha  occ. eigenvalues -- -104.73615-104.52570 -20.47448 -10.45584 -10.25020
 Alpha  occ. eigenvalues --   -7.92304  -7.92033  -7.92016  -7.71630  -7.71621
 Alpha  occ. eigenvalues --   -7.71619  -1.24647  -0.90212  -0.75971  -0.55336
 Alpha  occ. eigenvalues --   -0.45215  -0.44314  -0.31412  -0.28722  -0.17711
 Alpha  occ. eigenvalues --   -0.17334  -0.17157
 Alpha virt. eigenvalues --    0.15361   0.18010   0.22265   0.23200   0.26365
 Alpha virt. eigenvalues --    0.27538   0.28055   0.28810   0.29955   0.31859
 Alpha virt. eigenvalues --    0.32897   0.35146   0.40441   0.41399   0.45941

 Mulliken charges:
               1
     1  O   -0.381906
     2  Cl  -0.923941
     3  Cl   0.069905
     4  H    0.235941
 Sum of Mulliken charges =  -1.00000

 Dipole moment (field-independent basis, Debye):
    X=            -11.2212    Y=             -0.5766    Z=              0.6869  Tot=             11.2569
 Quadrupole moment (field-independent basis, Debye-Ang):
   XX=            -73.9770   YY=            -36.9233   ZZ=            -35.8288
   XY=              0.4886   XZ=              0.3746   YZ=             -0.2384

 Summary of Natural Population Analysis:

                                       Natural Population
                Natural  -----------------------------------------------
    Atom  No    Charge         Core      Valence    Rydberg      Total
 -----------------------------------------------------------------------
      O    1   -0.70285      1.99971     6.59266    0.11048     8.70285
     Cl    2   -0.95749     10.00008     7.80432    0.15309    17.95749
     Cl    3    0.16088      9.99983     6.69425    0.14503    16.83912
      H    4    0.49946      0.00000     0.47992    0.02062     0.50054
 =======================================================================
   * Total *   -1.00000     21.99963    21.57115    0.42922    44.00000

 Normal termination of Gaussian 16 at Wed Sep 22 16:33:12 2021.
