 Gaussian 16, Revision B.01,
 Gaussian 16:  ES64L-G16RevB.01 20-Dec-2017

 ----------------------------------------------------
 #p pop=NBO SP NoSymm mp2/aug-cc-pvtz density=current
 ----------------------------------------------------

 -----
 title
 -----
 Symbolic Z-matrix:
 Charge = -1 Multiplicity = 1

                          Input orientation:
 ---------------------------------------------------------------------
 Center     Atomic      Atomic             Coordinates (Angstroms)
 Number     Number       Type             X           Y           Z
 ---------------------------------------------------------------------
      1          8           0        0.000000    0.000000    0.000000
      2         17           0        2.904676    0.000000    0.000000
      3         17           0       -0.393687    1.636049    0.000000
      4          1           0        0.911048    0.000000    0.424829
 ---------------------------------------------------------------------

 SCF Done:  E(RHF) =  -994.517462998     A.U. after   13 cycles
 E2 =    -0.6662912993D+00 EUMP2 =    -0.99518375429733D+03

 Alpha  occ. eigenvalues -- -104.72868-104.53947 -20.46009 -10.44826 -10.26418
 Alpha  occ. eigenvalues --   -7.91544  -7.91280  -7.91267  -7.73031  -7.73017
 Alpha  occ. eigenvalues --   -7.73017  -1.22910  -0.89326  -0.77651  -0.53871
 Alpha  occ. eigenvalues --   -0.44080  -0.43228  -0.30586  -0.27848  -0.19378
 Alpha  occ. eigenvalues --   -0.18725  -0.18629
 Alpha virt. eigenvalues --    0.15877   0.18385   0.22518   0.23293   0.26035
 Alpha virt. eigenvalues --    0.27395   0.27961   0.29157   0.30783   0.31741
 Alpha virt. eigenvalues --    0.34031   0.34694   0.40510   0.42480   0.46409

 Mulliken charges:
               1
     1  O   -0.442305
     2  Cl  -0.871933
     3  Cl   0.053256
     4  H    0.260982
 Sum of Mulliken charges =  -1.00000

 Dipole moment (field-independent basis, Debye):
    X=            -10.2349    Y=             -0.6837    Z=              0.3516  Tot=             10.2638
 Quadrupole moment (field-independent basis, Debye-Ang):
   XX=            -70.5874   YY=            -36.9860   ZZ=            -36.3833
   XY=              0.4738   XZ=              0.2405   YZ=             -0.1378

 Summary of Natural Population Analysis:

                                       Natural Population
                Natural  -----------------------------------------------
    Atom  No    Charge         Core      Valence    Rydberg      Total
 -----------------------------------------------------------------------
      O    1   -0.74642      1.99970     6.63633    0.11039     8.74642
     Cl    2   -0.90214     10.00006     7.75379    0.14829    17.90214
     Cl    3    0.15602      9.99982     6.69919    0.14498    16.84398
      H    4    0.49254      0.00000     0.48202    0.02544     0.50746
 =======================================================================
   * Total *   -1.00000     21.99958    21.57133    0.42910    44.00000

 Normal termination of Gaussian 16 at Wed Sep 22 16:32:10 2021.
