 Gaussian 16, Revision B.01,
 Gaussian 16:  ES64L-G16RevB.01 20-Dec-2017

 -------------------------------------------------
 #p opt=(z-matrix) mp2/aug-cc-pvtz density=current
 -------------------------------------------------

 -----
 title
 -----
 Symbolic Z-matrix:
 Charge = -1 Multiplicity = 1

 SCF Done:  E(RHF) =  -994.512759518     A.U. after   13 cycles
 E2 =    -0.6673519813D+00 EUMP2 =    -0.99518011149877D+03
 SCF Done:  E(RHF) =  -994.514565396     A.U. after   11 cycles
 E2 =    -0.6660657956D+00 EUMP2 =    -0.99518063119121D+03
 SCF Done:  E(RHF) =  -994.514978241     A.U. after    9 cycles
 E2 =    -0.6656836866D+00 EUMP2 =    -0.99518066192750D+03
 Optimization completed.
    -- Stationary point found.

                         Standard orientation:
 ---------------------------------------------------------------------
 Center     Atomic      Atomic             Coordinates (Angstroms)
 Number     Number       Type             X           Y           Z
 ---------------------------------------------------------------------
      1          8           0        0.678392    0.991140   -0.041717
      2         17           0        1.681672   -0.359162    0.000239
      3         17           0       -1.994005   -0.146536   -0.008097
      4          1           0       -0.117479    0.667755    0.467338
 ---------------------------------------------------------------------

 The electronic state is 1-A.
 Alpha  occ. eigenvalues -- -104.73070-104.53600 -20.46385 -10.45031 -10.26065
 Alpha  occ. eigenvalues --   -7.91749  -7.91483  -7.91470  -7.72678  -7.72665
 Alpha  occ. eigenvalues --   -7.72664  -1.23362  -0.89570  -0.77217  -0.54256
 Alpha  occ. eigenvalues --   -0.44382  -0.43516  -0.30795  -0.28087  -0.18960
 Alpha  occ. eigenvalues --   -0.18374  -0.18257
 Alpha virt. eigenvalues --    0.15767   0.18290   0.22468   0.23247   0.26120
 Alpha virt. eigenvalues --    0.27431   0.28070   0.28992   0.30481   0.31843
 Alpha virt. eigenvalues --    0.33878   0.34730   0.40757   0.41870   0.46357

 Mulliken charges:
               1
     1  O   -0.423291
     2  Cl   0.058062
     3  Cl  -0.885224
     4  H    0.250453
 Sum of Mulliken charges =  -1.00000

 Dipole moment (field-independent basis, Debye):
    X=              6.1253    Y=             -0.0428    Z=              0.4926  Tot=              6.1452
 Quadrupole moment (field-independent basis, Debye-Ang):
   XX=            -55.9613   YY=            -37.2742   ZZ=            -36.3064
   XY=             -2.8317   XZ=             -0.0304   YZ=              0.4965

 Normal termination of Gaussian 16 at Thu Sep 16 14:55:19 2021.
