 Gaussian 16, Revision B.01,
 Gaussian 16:  ES64L-G16RevB.01 20-Dec-2017

 -------------------------------------------------
 #p opt=(z-matrix) mp2/aug-cc-pvtz density=current
 -------------------------------------------------

 -----
 title
 -----
 Symbolic Z-matrix:
 Charge = -1 Multiplicity = 1

 SCF Done:  E(RHF) =  -994.484511112     A.U. after   13 cycles
 E2 =    -0.6660950642D+00 EUMP2 =    -0.99515060617635D+03
 SCF Done:  E(RHF) =  -994.488718733     A.U. after   11 cycles
 E2 =    -0.6637330698D+00 EUMP2 =    -0.99515245180330D+03
 SCF Done:  E(RHF) =  -994.488829965     A.U. after    8 cycles
 E2 =    -0.6636257544D+00 EUMP2 =    -0.99515245571970D+03
 Optimization completed.
    -- Stationary point found.
 SCF Done:  E(RHF) =  -994.489972728     A.U. after   11 cycles
 E2 =    -0.6635534890D+00 EUMP2 =    -0.99515352621697D+03
 Optimization completed.
 SCF Done:  E(RHF) =  -994.491126774     A.U. after   11 cycles
 E2 =    -0.6634895088D+00 EUMP2 =    -0.99515461628324D+03
 SCF Done:  E(RHF) =  -994.491098796     A.U. after    7 cycles
 E2 =    -0.6635177528D+00 EUMP2 =    -0.99515461654904D+03
 SCF Done:  E(RHF) =  -994.492264439     A.U. after   11 cycles
 E2 =    -0.6634624441D+00 EUMP2 =    -0.99515572688351D+03
 SCF Done:  E(RHF) =  -994.492245830     A.U. after    6 cycles
 E2 =    -0.6634811653D+00 EUMP2 =    -0.99515572699532D+03
 SCF Done:  E(RHF) =  -994.493422969     A.U. after   11 cycles
 E2 =    -0.6634348697D+00 EUMP2 =    -0.99515685783899D+03
 SCF Done:  E(RHF) =  -994.493400708     A.U. after    6 cycles
 E2 =    -0.6634572942D+00 EUMP2 =    -0.99515685800229D+03
 E2 =    -0.6634203184D+00 EUMP2 =    -0.99515800965890D+03
 E2 =    -0.6634466706D+00 EUMP2 =    -0.99515800989227D+03
 E2 =    -0.6634192696D+00 EUMP2 =    -0.99515918255410D+03
 E2 =    -0.6634498478D+00 EUMP2 =    -0.99515918286962D+03
 E2 =    -0.6634322283D+00 EUMP2 =    -0.99516037659840D+03
 E2 =    -0.6634673503D+00 EUMP2 =    -0.99516037701588D+03
 E2 =    -0.6634596477D+00 EUMP2 =    -0.99516159169274D+03
 E2 =    -0.6635004229D+00 EUMP2 =    -0.99516159223554D+03
 E2 =    -0.6635027008D+00 EUMP2 =    -0.99516282755203D+03
 E2 =    -0.6635483422D+00 EUMP2 =    -0.99516282822384D+03
 E2 =    -0.6636117708D+00 EUMP2 =    -0.99516408443931D+03
 E2 =    -0.6635993419D+00 EUMP2 =    -0.99516282741732D+03
 E2 =    -0.6635482208D+00 EUMP2 =    -0.99516282823367D+03
 E2 =    -0.6635457897D+00 EUMP2 =    -0.99516159158629D+03
 E2 =    -0.6635003260D+00 EUMP2 =    -0.99516159224497D+03
 E2 =    -0.6635079082D+00 EUMP2 =    -0.99516037650111D+03
 E2 =    -0.6634677352D+00 EUMP2 =    -0.99516037702483D+03
 E2 =    -0.6634852648D+00 EUMP2 =    -0.99515918246816D+03
 E2 =    -0.6634500244D+00 EUMP2 =    -0.99515918287786D+03
 E2 =    -0.6634773614D+00 EUMP2 =    -0.99515800958511D+03
 SCF Done:  E(RHF) =  -994.494563192     A.U. after    7 cycles
 E2 =    -0.6634467083D+00 EUMP2 =    -0.99515800989979D+03
 SCF Done:  E(RHF) =  -994.493374131     A.U. after   11 cycles
 E2 =    -0.6634836459D+00 EUMP2 =    -0.99515685777724D+03
 SCF Done:  E(RHF) =  -994.493400919     A.U. after    7 cycles
 E2 =    -0.6634570944D+00 EUMP2 =    -0.99515685801386D+03
 SCF Done:  E(RHF) =  -994.492223466     A.U. after   11 cycles
 E2 =    -0.6635033683D+00 EUMP2 =    -0.99515572683454D+03
 SCF Done:  E(RHF) =  -994.492246176     A.U. after    6 cycles
 E2 =    -0.6634808344D+00 EUMP2 =    -0.99515572701077D+03
 SCF Done:  E(RHF) =  -994.491080309     A.U. after   11 cycles
 E2 =    -0.6635361267D+00 EUMP2 =    -0.99515461643600D+03
 SCF Done:  E(RHF) =  -994.491099267     A.U. after    6 cycles
 E2 =    -0.6635172940D+00 EUMP2 =    -0.99515461656081D+03
 SCF Done:  E(RHF) =  -994.489944932     A.U. after   11 cycles
 E2 =    -0.6635812599D+00 EUMP2 =    -0.99515352619216D+03
    -- Stationary point found.
 SCF Done:  E(RHF) =  -994.488801928     A.U. after   11 cycles
 E2 =    -0.6636535320D+00 EUMP2 =    -0.99515245546028D+03
 SCF Done:  E(RHF) =  -994.488830236     A.U. after    7 cycles
 E2 =    -0.6636254878D+00 EUMP2 =    -0.99515245572359D+03
 Optimization completed.
    -- Stationary point found.

                         Standard orientation:
 ---------------------------------------------------------------------
 Center     Atomic      Atomic             Coordinates (Angstroms)
 Number     Number       Type             X           Y           Z
 ---------------------------------------------------------------------
      1          8           0       -0.669506    0.978414    0.102050
      2         17           0       -1.666831   -0.372939   -0.002039
      3         17           0        2.007854   -0.143712    0.003454
      4          1           0       -0.441344    0.955760   -0.840445
 ---------------------------------------------------------------------

 The electronic state is 1-A.
 Alpha  occ. eigenvalues -- -104.74279-104.51003 -20.48920 -10.46275 -10.23437
 Alpha  occ. eigenvalues --   -7.92996  -7.92719  -7.92697  -7.70043  -7.70039
 Alpha  occ. eigenvalues --   -7.70036  -1.26462  -0.90867  -0.74199  -0.56711
 Alpha  occ. eigenvalues --   -0.46306  -0.45328  -0.32242  -0.29488  -0.15873
 Alpha  occ. eigenvalues --   -0.15758  -0.15470
 Alpha virt. eigenvalues --    0.14390   0.17586   0.21964   0.23233   0.26615
 Alpha virt. eigenvalues --    0.27024   0.28098   0.29310   0.29740   0.30616
 Alpha virt. eigenvalues --    0.31792   0.35461   0.39388   0.41884   0.44260

 Mulliken charges:
               1
     1  O   -0.341821
     2  Cl   0.071196
     3  Cl  -0.977174
     4  H    0.247799
 Sum of Mulliken charges =  -1.00000

 Dipole moment (field-independent basis, Debye):
    X=             -8.1186    Y=              0.6958    Z=             -1.1443  Tot=              8.2283
 Quadrupole moment (field-independent basis, Debye-Ang):
   XX=            -58.9628   YY=            -36.5663   ZZ=            -35.2823
   XY=              2.5636   XZ=              0.6949   YZ=             -1.5418

 Normal termination of Gaussian 16 at Mon Oct 25 15:44:06 2021.
