 Gaussian 16, Revision B.01,
 Gaussian 16:  ES64L-G16RevB.01 20-Dec-2017

 -------------------------------------------------
 #p opt=(z-matrix) mp2/aug-cc-pvtz density=current
 -------------------------------------------------

 -----
 title
 -----
 Symbolic Z-matrix:
 Charge = -1 Multiplicity = 1

 SCF Done:  E(RHF) =  -994.500229806     A.U. after   13 cycles
 E2 =    -0.6659246326D+00 EUMP2 =    -0.99516615443858D+03
 SCF Done:  E(RHF) =  -994.503252540     A.U. after   11 cycles
 E2 =    -0.6640427041D+00 EUMP2 =    -0.99516729524384D+03
 SCF Done:  E(RHF) =  -994.503465811     A.U. after    9 cycles
 E2 =    -0.6638412609D+00 EUMP2 =    -0.99516730707219D+03
 Optimization completed.
    -- Stationary point found.
 SCF Done:  E(RHF) =  -994.504736639     A.U. after   11 cycles
 E2 =    -0.6638868997D+00 EUMP2 =    -0.99516862353850D+03
 SCF Done:  E(RHF) =  -994.504663095     A.U. after    8 cycles
 E2 =    -0.6639620695D+00 EUMP2 =    -0.99516862516455D+03
 Optimization completed.
 SCF Done:  E(RHF) =  -994.505938516     A.U. after   11 cycles
 E2 =    -0.6640164308D+00 EUMP2 =    -0.99516995494676D+03
 SCF Done:  E(RHF) =  -994.505860254     A.U. after    8 cycles
 E2 =    -0.6640965638D+00 EUMP2 =    -0.99516995681782D+03
 SCF Done:  E(RHF) =  -994.507138044     A.U. after   11 cycles
 E2 =    -0.6641590699D+00 EUMP2 =    -0.99517129711361D+03
 SCF Done:  E(RHF) =  -994.507051284     A.U. after    8 cycles
 E2 =    -0.6642480803D+00 EUMP2 =    -0.99517129936448D+03
 SCF Done:  E(RHF) =  -994.508328966     A.U. after   11 cycles
 E2 =    -0.6643180559D+00 EUMP2 =    -0.99517264702209D+03
 E2 =    -0.6644148245D+00 EUMP2 =    -0.99517264961259D+03
 E2 =    -0.6644914670D+00 EUMP2 =    -0.99517400086322D+03
 E2 =    -0.6645961110D+00 EUMP2 =    -0.99517400381321D+03
 E2 =    -0.6646785180D+00 EUMP2 =    -0.99517535432729D+03
 E2 =    -0.6647910257D+00 EUMP2 =    -0.99517535763638D+03
 E2 =    -0.6648781870D+00 EUMP2 =    -0.99517670249541D+03
 E2 =    -0.6649984131D+00 EUMP2 =    -0.99517670615845D+03
 E2 =    -0.6650892325D+00 EUMP2 =    -0.99517803986543D+03
 E2 =    -0.6652168710D+00 EUMP2 =    -0.99517804386407D+03
 E2 =    -0.6653101878D+00 EUMP2 =    -0.99517936036272D+03
 E2 =    -0.6655847928D+00 EUMP2 =    -0.99517936054781D+03
 E2 =    -0.6654444112D+00 EUMP2 =    -0.99517936466153D+03
 E2 =    -0.6653506241D+00 EUMP2 =    -0.99517803995874D+03
 E2 =    -0.6652165034D+00 EUMP2 =    -0.99517804386321D+03
 E2 =    -0.6651251851D+00 EUMP2 =    -0.99517670251048D+03
 E2 =    -0.6649980261D+00 EUMP2 =    -0.99517670615815D+03
 E2 =    -0.6649103536D+00 EUMP2 =    -0.99517535427904D+03
 E2 =    -0.6647906370D+00 EUMP2 =    -0.99517535763654D+03
 E2 =    -0.6647077216D+00 EUMP2 =    -0.99517400076645D+03
 E2 =    -0.6645957354D+00 EUMP2 =    -0.99517400381372D+03
 SCF Done:  E(RHF) =  -994.508128284     A.U. after   10 cycles
 E2 =    -0.6645186007D+00 EUMP2 =    -0.99517264688435D+03
 SCF Done:  E(RHF) =  -994.508235145     A.U. after    8 cycles
 E2 =    -0.6644144686D+00 EUMP2 =    -0.99517264961328D+03
 SCF Done:  E(RHF) =  -994.506952919     A.U. after   10 cycles
 E2 =    -0.6643440341D+00 EUMP2 =    -0.99517129695271D+03
 SCF Done:  E(RHF) =  -994.507051622     A.U. after    8 cycles
 E2 =    -0.6642477438D+00 EUMP2 =    -0.99517129936534D+03
 SCF Done:  E(RHF) =  -994.505769897     A.U. after   11 cycles
 E2 =    -0.6641848078D+00 EUMP2 =    -0.99516995470484D+03
 SCF Done:  E(RHF) =  -994.505860576     A.U. after    8 cycles
 E2 =    -0.6640962426D+00 EUMP2 =    -0.99516995681872D+03
 SCF Done:  E(RHF) =  -994.504581841     A.U. after   11 cycles
 E2 =    -0.6640414990D+00 EUMP2 =    -0.99516862334015D+03
 SCF Done:  E(RHF) =  -994.504664716     A.U. after    8 cycles
 E2 =    -0.6639604493D+00 EUMP2 =    -0.99516862516525D+03
    -- Stationary point found.
 SCF Done:  E(RHF) =  -994.503391048     A.U. after   11 cycles
 E2 =    -0.6639144676D+00 EUMP2 =    -0.99516730551572D+03
 SCF Done:  E(RHF) =  -994.503466415     A.U. after    8 cycles
 E2 =    -0.6638406575D+00 EUMP2 =    -0.99516730707296D+03
 Optimization completed.
    -- Stationary point found.

                         Standard orientation:
 ---------------------------------------------------------------------
 Center     Atomic      Atomic             Coordinates (Angstroms)
 Number     Number       Type             X           Y           Z
 ---------------------------------------------------------------------
      1          8           0       -0.674711    0.986519    0.070406
      2         17           0       -1.676109   -0.363948   -0.000910
      3         17           0        1.999268   -0.146241    0.008465
      4          1           0       -0.096024    0.781054   -0.691685
 ---------------------------------------------------------------------

 The electronic state is 1-A.
 Alpha  occ. eigenvalues -- -104.73762-104.52256 -20.47757 -10.45735 -10.24702
 Alpha  occ. eigenvalues --   -7.92455  -7.92182  -7.92165  -7.71311  -7.71303
 Alpha  occ. eigenvalues --   -7.71301  -1.25015  -0.90374  -0.75604  -0.55634
 Alpha  occ. eigenvalues --   -0.45448  -0.44536  -0.31591  -0.28892  -0.17333
 Alpha  occ. eigenvalues --   -0.17017  -0.16821
 Alpha virt. eigenvalues --    0.15208   0.17925   0.22197   0.23203   0.26429
 Alpha virt. eigenvalues --    0.27565   0.27945   0.28875   0.29874   0.31773
 Alpha virt. eigenvalues --    0.32564   0.35244   0.40164   0.41537   0.45719

 Mulliken charges:
               1
     1  O   -0.373537
     2  Cl   0.072130
     3  Cl  -0.935519
     4  H    0.236926
 Sum of Mulliken charges =  -1.00000

 Dipole moment (field-independent basis, Debye):
    X=             -7.0895    Y=              0.2843    Z=             -0.8371  Tot=              7.1445
 Quadrupole moment (field-independent basis, Debye-Ang):
   XX=            -57.5898   YY=            -37.0660   ZZ=            -35.7910
   XY=              2.8772   XZ=              0.1195   YZ=             -0.9295

 Normal termination of Gaussian 16 at Fri Oct 22 08:42:21 2021.
