 Gaussian 16, Revision B.01,
 Gaussian 16:  ES64L-G16RevB.01 20-Dec-2017

 ----------------------------------------------------
 #p pop=NBO SP NoSymm mp2/aug-cc-pvtz density=current
 ----------------------------------------------------

 -----
 title
 -----
 Symbolic Z-matrix:
 Charge = -1 Multiplicity = 1

                          Input orientation:
 ---------------------------------------------------------------------
 Center     Atomic      Atomic             Coordinates (Angstroms)
 Number     Number       Type             X           Y           Z
 ---------------------------------------------------------------------
      1          8           0        0.000000    0.000000    0.000000
      2         17           0        2.904676    0.000000    0.000000
      3         17           0       -0.393687    1.636049    0.000000
      4          1           0        0.983399    0.000000    0.263501
 ---------------------------------------------------------------------

 SCF Done:  E(RHF) =  -994.521455027     A.U. after   13 cycles
 E2 =    -0.6674139185D+00 EUMP2 =    -0.99518886894512D+03

 Alpha  occ. eigenvalues -- -104.72488-104.54561 -20.45321 -10.44443 -10.27043
 Alpha  occ. eigenvalues --   -7.91160  -7.90900  -7.90889  -7.73658  -7.73642
 Alpha  occ. eigenvalues --   -7.73642  -1.22093  -0.88870  -0.78438  -0.53178
 Alpha  occ. eigenvalues --   -0.43522  -0.42698  -0.30223  -0.27397  -0.20105
 Alpha  occ. eigenvalues --   -0.19346  -0.19297
 Alpha virt. eigenvalues --    0.16042   0.18551   0.22572   0.23424   0.25897
 Alpha virt. eigenvalues --    0.27322   0.27709   0.29464   0.31316   0.31715
 Alpha virt. eigenvalues --    0.33937   0.34920   0.39691   0.43893   0.46429

 Mulliken charges:
               1
     1  O   -0.478233
     2  Cl  -0.847528
     3  Cl   0.044239
     4  H    0.281522
 Sum of Mulliken charges =  -1.00000

 Dipole moment (field-independent basis, Debye):
    X=             -9.8108    Y=             -0.7419    Z=              0.2014  Tot=              9.8408
 Quadrupole moment (field-independent basis, Debye-Ang):
   XX=            -69.1051   YY=            -37.0336   ZZ=            -36.5595
   XY=              0.4786   XZ=              0.1385   YZ=             -0.0838

 Summary of Natural Population Analysis:

                                       Natural Population
                Natural  -----------------------------------------------
    Atom  No    Charge         Core      Valence    Rydberg      Total
 -----------------------------------------------------------------------
      O    1   -0.76135      1.99969     6.65127    0.11040     8.76135
     Cl    2   -0.87215     10.00004     7.72563    0.14648    17.87215
     Cl    3    0.15282      9.99981     6.70201    0.14537    16.84718
      H    4    0.48068      0.00000     0.49245    0.02686     0.51932
 =======================================================================
   * Total *   -1.00000     21.99954    21.57136    0.42910    44.00000

 Normal termination of Gaussian 16 at Wed Sep 22 16:31:39 2021.
