 Gaussian 16, Revision B.01,
 Gaussian 16:  ES64L-G16RevB.01 20-Dec-2017

 ----------------------------------------------------------
 #p opt=(z-matrix) freq=anh mp2/aug-cc-pvtz density=current
 ----------------------------------------------------------

 -----
 title
 -----
 Symbolic Z-matrix:
 Charge = -1 Multiplicity = 1

 SCF Done:  E(RHF) =  -994.523881421     A.U. after   13 cycles
 E2 =    -0.6682443141D+00 EUMP2 =    -0.99519212573550D+03
 SCF Done:  E(RHF) =  -994.523901176     A.U. after    7 cycles
 E2 =    -0.6682246401D+00 EUMP2 =    -0.99519212581637D+03
 Optimization completed.
    -- Stationary point found.
 Normal termination of Gaussian 16 at Fri Oct 22 07:11:28 2021.

 ----------------------------------------------------------------------
 #P Geom=AllCheck Guess=TCheck SCRF=Check GenChk RMP2(FC)/Aug-CC-pVTZ F
 req
 ----------------------------------------------------------------------

 Structure from the checkpoint file:  "/gscratch/ilahie/mccoygrp/coire_hocl/oop_s_rOH_opt/clhocl/clhocl_oop_s.chk"
 -----
 title
 -----
 Charge = -1 Multiplicity = 1

                         Standard orientation:
 ---------------------------------------------------------------------
 Center     Atomic      Atomic             Coordinates (Angstroms)
 Number     Number       Type             X           Y           Z
 ---------------------------------------------------------------------
      1          8           0       -1.028258    0.628517    0.000000
      2         17           0       -1.393246   -1.014187   -0.000000
      3         17           0        1.877132    0.680364    0.000000
      4          1           0        0.000000    0.646866    0.000000
 ---------------------------------------------------------------------

 SCF Done:  E(RHF) =  -994.523901176     A.U. after    1 cycles
 E2 =    -0.6682246393D+00 EUMP2 =    -0.99519212581562D+03
 E2 =    -0.6682246393D+00 EUMP2 =    -0.99519212581562D+03
 SCF Done:  E(RHF) =  -994.523915686     A.U. after    9 cycles
 E2 =    -0.6682138303D+00 EUMP2 =    -0.99519212951661D+03
 E2 =    -0.6682138303D+00 EUMP2 =    -0.99519212951661D+03
 SCF Done:  E(RHF) =  -994.523886415     A.U. after    9 cycles
 E2 =    -0.6682355504D+00 EUMP2 =    -0.99519212196507D+03
 E2 =    -0.6682355504D+00 EUMP2 =    -0.99519212196507D+03
 SCF Done:  E(RHF) =  -994.523938306     A.U. after    9 cycles
 E2 =    -0.6681832705D+00 EUMP2 =    -0.99519212157672D+03
 E2 =    -0.6681832705D+00 EUMP2 =    -0.99519212157672D+03
 SCF Done:  E(RHF) =  -994.523862671     A.U. after    9 cycles
 E2 =    -0.6682663012D+00 EUMP2 =    -0.99519212897182D+03
 E2 =    -0.6682663012D+00 EUMP2 =    -0.99519212897182D+03
 SCF Done:  E(RHF) =  -994.524021738     A.U. after    9 cycles
 E2 =    -0.6680978854D+00 EUMP2 =    -0.99519211962330D+03
 E2 =    -0.6680978854D+00 EUMP2 =    -0.99519211962330D+03
 SCF Done:  E(RHF) =  -994.523772636     A.U. after    9 cycles
 E2 =    -0.6683511354D+00 EUMP2 =    -0.99519212377118D+03
 E2 =    -0.6683511354D+00 EUMP2 =    -0.99519212377118D+03
 SCF Done:  E(RHF) =  -994.523893911     A.U. after   10 cycles
 E2 =    -0.6682271043D+00 EUMP2 =    -0.99519212101509D+03
 E2 =    -0.6682271043D+00 EUMP2 =    -0.99519212101509D+03
 SCF Done:  E(RHF) =  -994.523893911     A.U. after   10 cycles
 E2 =    -0.6682271043D+00 EUMP2 =    -0.99519212101509D+03
 E2 =    -0.6682271043D+00 EUMP2 =    -0.99519212101509D+03
 SCF Done:  E(RHF) =  -994.523855122     A.U. after    9 cycles
 E2 =    -0.6682925326D+00 EUMP2 =    -0.99519214765442D+03
 E2 =    -0.6682925326D+00 EUMP2 =    -0.99519214765442D+03
 SCF Done:  E(RHF) =  -994.523911500     A.U. after    9 cycles
 E2 =    -0.6681641530D+00 EUMP2 =    -0.99519207565305D+03
 E2 =    -0.6681641530D+00 EUMP2 =    -0.99519207565305D+03
 SCF Done:  E(RHF) =  -994.524410062     A.U. after    9 cycles
 E2 =    -0.6676650217D+00 EUMP2 =    -0.99519207508364D+03
 E2 =    -0.6676650217D+00 EUMP2 =    -0.99519207508364D+03
 SCF Done:  E(RHF) =  -994.523297057     A.U. after    9 cycles
 E2 =    -0.6687804310D+00 EUMP2 =    -0.99519207748751D+03
 E2 =    -0.6687804310D+00 EUMP2 =    -0.99519207748751D+03

 Alpha  occ. eigenvalues -- -104.72108-104.55107 -20.44735 -10.44062 -10.27598
 Alpha  occ. eigenvalues --   -7.90779  -7.90521  -7.90512  -7.74216  -7.74197
 Alpha  occ. eigenvalues --   -7.74196  -1.21227  -0.88364  -0.79127  -0.52374
 Alpha  occ. eigenvalues --   -0.42985  -0.42182  -0.29886  -0.26946  -0.20684
 Alpha  occ. eigenvalues --   -0.19883  -0.19878
 Alpha virt. eigenvalues --    0.16142   0.18699   0.22586   0.23576   0.25810
 Alpha virt. eigenvalues --    0.27242   0.27462   0.29716   0.31102   0.32796
 Alpha virt. eigenvalues --    0.33770   0.35034   0.38534   0.45384   0.46302

 Mulliken charges:
               1
     1  O   -0.504471
     2  Cl   0.036011
     3  Cl  -0.824398
     4  H    0.292858
 Sum of Mulliken charges =  -1.00000

 Dipole moment (field-independent basis, Debye):
    X=             -4.5171    Y=             -2.3833    Z=              0.0000  Tot=              5.1073
 Quadrupole moment (field-independent basis, Debye-Ang):
   XX=            -53.4868   YY=            -38.2374   ZZ=            -36.6595
   XY=             -4.5346   XZ=              0.0000   YZ=              0.0000

  Exact polarizability:  60.695   7.173  52.168  -0.000  -0.000  43.151
 Approx polarizability:  43.125   2.511  46.529   0.000  -0.000  37.719

                      1                      2                      3
                     A'                     A'                     A'
 Frequencies --    104.9411               282.9508               780.6513
 Red. masses --     19.4585                 9.2064                16.5296
 Frc consts  --      0.1263                 0.4343                 5.9351
 IR Inten    --      8.3546                52.6308                 9.0398

                      4                      5                      6
                     A"                     A'                     A'
 Frequencies --    842.7246              1447.6597              2706.6955
 Red. masses --      1.0361                 1.0532                 1.0768
 Frc consts  --      0.4336                 1.3005                 4.6478
 IR Inten    --     27.3498                13.4136              2736.1269

 - Thermochemistry -
 -------------------
 Temperature   298.150 Kelvin.  Pressure   1.00000 Atm.
 Atom     1 has atomic number  8 and mass  15.99491

 Molecular mass:    86.94045 amu.
 Principal axes and moments of inertia in atomic units:
                           1         2         3
     Eigenvalues --    76.14235 876.93857 953.08092
           X            0.91241  -0.40927   0.00000
           Y            0.40927   0.91241   0.00000
           Z            0.00000  -0.00000   1.00000
 This molecule is an asymmetric top.
 Rotational symmetry number  1.
 Rotational temperatures (Kelvin)      1.13753     0.09877     0.09088
 Rotational constants (GHZ):          23.70220     2.05800     1.89359
 Zero-point vibrational energy      36878.6 (Joules/Mol)
                                    8.81420 (Kcal/Mol)
 Warning -- explicit consideration of   2 degrees of freedom as
           vibrations may cause significant error
 Vibrational temperatures:    150.99   407.10  1123.18  1212.49  2082.86
          (Kelvin)           3894.33

 Zero-point correction=                           0.014046 (Hartree/Particle)
 Thermal correction to Energy=                    0.018203
 Thermal correction to Enthalpy=                  0.019147
 Thermal correction to Gibbs Free Energy=        -0.014229
 Sum of electronic and zero-point Energies=           -995.178079
 Sum of electronic and thermal Energies=              -995.173923
 Sum of electronic and thermal Enthalpies=            -995.172978
 Sum of electronic and thermal Free Energies=         -995.206355

                     E (Thermal)             CV                S
                      KCal/Mol        Cal/Mol-Kelvin    Cal/Mol-Kelvin
 Total                   11.423             10.969             70.247
 Electronic               0.000              0.000              0.000
 Translational            0.889              2.981             39.301
 Rotational               0.889              2.981             25.657
 Vibrational              9.645              5.007              5.290
 Vibration     1          0.605              1.945              3.360
 Vibration     2          0.682              1.705              1.516

 ## DEPERTURBED TRANSITIONS MOMENTS ##

 Electric dipole : Fundamental Bands
 ------------------------------------------------------------------------

 ## AFTER VARIATIONAL CORRECTION

 Electric dipole : Fundamental Bands
 ------------------------------------------------------------------------

 Optimization completed.
    -- Stationary point found.
 Normal termination of Gaussian 16 at Fri Oct 22 07:42:20 2021.
