 Gaussian 16, Revision B.01,
 Gaussian 16:  ES64L-G16RevB.01 20-Dec-2017

 -------------------------------------------------
 #p opt=(z-matrix) mp2/aug-cc-pvtz density=current
 -------------------------------------------------

 -----
 title
 -----
 Symbolic Z-matrix:
 Charge = -1 Multiplicity = 1

 SCF Done:  E(RHF) =  -994.524422004     A.U. after   13 cycles
 E2 =    -0.6676486792D+00 EUMP2 =    -0.99519207068286D+03
 SCF Done:  E(RHF) =  -994.524103241     A.U. after    9 cycles
 E2 =    -0.6680144521D+00 EUMP2 =    -0.99519211769333D+03
 SCF Done:  E(RHF) =  -994.523881865     A.U. after    8 cycles
 E2 =    -0.6682438811D+00 EUMP2 =    -0.99519212574605D+03
 Optimization completed.
    -- Stationary point found.
 SCF Done:  E(RHF) =  -994.523867880     A.U. after   10 cycles
 E2 =    -0.6682427070D+00 EUMP2 =    -0.99519211058731D+03
 Optimization completed.
 SCF Done:  E(RHF) =  -994.523825947     A.U. after   10 cycles
 E2 =    -0.6682392193D+00 EUMP2 =    -0.99519206516676D+03
 SCF Done:  E(RHF) =  -994.523756130     A.U. after   10 cycles
 E2 =    -0.6682334140D+00 EUMP2 =    -0.99519198954383D+03
 SCF Done:  E(RHF) =  -994.523658533     A.U. after   10 cycles
 E2 =    -0.6682253024D+00 EUMP2 =    -0.99519188383593D+03
 SCF Done:  E(RHF) =  -994.523702007     A.U. after    7 cycles
 E2 =    -0.6681821138D+00 EUMP2 =    -0.99519188412037D+03
 SCF Done:  E(RHF) =  -994.523577116     A.U. after   10 cycles
 E2 =    -0.6681717051D+00 EUMP2 =    -0.99519174882139D+03
 SCF Done:  E(RHF) =  -994.523424862     A.U. after   10 cycles
 E2 =    -0.6681590175D+00 EUMP2 =    -0.99519158387921D+03
 E2 =    -0.6681038909D+00 EUMP2 =    -0.99519158432602D+03
 E2 =    -0.6680889424D+00 EUMP2 =    -0.99519139060533D+03
 E2 =    -0.6680547479D+00 EUMP2 =    -0.99519139077645D+03
 E2 =    -0.6680375627D+00 EUMP2 =    -0.99519116849385D+03
 E2 =    -0.6679979168D+00 EUMP2 =    -0.99519116872282D+03
 E2 =    -0.6679785292D+00 EUMP2 =    -0.99519091842123D+03
 E2 =    -0.6679349989D+00 EUMP2 =    -0.99519091870534D+03
 E2 =    -0.6679134457D+00 EUMP2 =    -0.99519064097141D+03
 E2 =    -0.6678652179D+00 EUMP2 =    -0.99519064132369D+03
 E2 =    -0.6678415414D+00 EUMP2 =    -0.99519033682073D+03
 E2 =    -0.6645583660D+00 EUMP2 =    -0.99517332575984D+03
 E2 =    -0.6645051242D+00 EUMP2 =    -0.99517332647896D+03
 E2 =    -0.6644673960D+00 EUMP2 =    -0.99517264893813D+03
 E2 =    -0.6644161279D+00 EUMP2 =    -0.99517264961597D+03
 E2 =    -0.6643800748D+00 EUMP2 =    -0.99517197311334D+03
 E2 =    -0.6643307755D+00 EUMP2 =    -0.99517197375021D+03
 E2 =    -0.6642965017D+00 EUMP2 =    -0.99517129877148D+03
 E2 =    -0.6642491596D+00 EUMP2 =    -0.99517129936796D+03
 E2 =    -0.6642167620D+00 EUMP2 =    -0.99517062636285D+03
 E2 =    -0.6641713590D+00 EUMP2 =    -0.99517062691979D+03
 SCF Done:  E(RHF) =  -994.505815376     A.U. after   10 cycles
 E2 =    -0.6641409269D+00 EUMP2 =    -0.99516995630292D+03
 SCF Done:  E(RHF) =  -994.505859382     A.U. after    7 cycles
 E2 =    -0.6640974396D+00 EUMP2 =    -0.99516995682132D+03
 SCF Done:  E(RHF) =  -994.505219918     A.U. after   10 cycles
 E2 =    -0.6640690551D+00 EUMP2 =    -0.99516928897327D+03
 SCF Done:  E(RHF) =  -994.505261999     A.U. after    7 cycles
 E2 =    -0.6640274553D+00 EUMP2 =    -0.99516928945435D+03
 SCF Done:  E(RHF) =  -994.504623530     A.U. after   10 cycles
 E2 =    -0.6640011931D+00 EUMP2 =    -0.99516862472272D+03
 SCF Done:  E(RHF) =  -994.504663719     A.U. after    7 cycles
 E2 =    -0.6639614485D+00 EUMP2 =    -0.99516862516781D+03
 SCF Done:  E(RHF) =  -994.504026492     A.U. after   10 cycles
 E2 =    -0.6639373761D+00 EUMP2 =    -0.99516796386859D+03
 SCF Done:  E(RHF) =  -994.504064828     A.U. after    7 cycles
 E2 =    -0.6638994509D+00 EUMP2 =    -0.99516796427914D+03
    -- Stationary point found.
 SCF Done:  E(RHF) =  -994.503429069     A.U. after   10 cycles
 E2 =    -0.6638776286D+00 EUMP2 =    -0.99516730669793D+03
 SCF Done:  E(RHF) =  -994.503465591     A.U. after    7 cycles
 E2 =    -0.6638414843D+00 EUMP2 =    -0.99516730707547D+03
 Optimization completed.
    -- Stationary point found.

                         Standard orientation:
 ---------------------------------------------------------------------
 Center     Atomic      Atomic             Coordinates (Angstroms)
 Number     Number       Type             X           Y           Z
 ---------------------------------------------------------------------
      1          8           0       -0.674711    0.986519    0.070407
      2         17           0       -1.676109   -0.363948   -0.000910
      3         17           0        1.999268   -0.146241    0.008465
      4          1           0       -0.096015    0.781051   -0.691697
 ---------------------------------------------------------------------

 The electronic state is 1-A.
 Alpha  occ. eigenvalues -- -104.73762-104.52256 -20.47757 -10.45735 -10.24702
 Alpha  occ. eigenvalues --   -7.92454  -7.92182  -7.92165  -7.71311  -7.71303
 Alpha  occ. eigenvalues --   -7.71301  -1.25015  -0.90374  -0.75604  -0.55634
 Alpha  occ. eigenvalues --   -0.45448  -0.44536  -0.31591  -0.28892  -0.17333
 Alpha  occ. eigenvalues --   -0.17017  -0.16821
 Alpha virt. eigenvalues --    0.15208   0.17925   0.22197   0.23203   0.26429
 Alpha virt. eigenvalues --    0.27565   0.27945   0.28875   0.29874   0.31773
 Alpha virt. eigenvalues --    0.32564   0.35244   0.40164   0.41537   0.45719

 Mulliken charges:
               1
     1  O   -0.373549
     2  Cl   0.072129
     3  Cl  -0.935517
     4  H    0.236937
 Sum of Mulliken charges =  -1.00000

 Dipole moment (field-independent basis, Debye):
    X=             -7.0895    Y=              0.2843    Z=             -0.8371  Tot=              7.1444
 Quadrupole moment (field-independent basis, Debye-Ang):
   XX=            -57.5898   YY=            -37.0660   ZZ=            -35.7910
   XY=              2.8772   XZ=              0.1195   YZ=             -0.9295

 Normal termination of Gaussian 16 at Thu Oct 21 23:50:24 2021.
