 Gaussian 16, Revision B.01,
 Gaussian 16:  ES64L-G16RevB.01 20-Dec-2017

 ----------------------------------------------------
 #p pop=NBO SP NoSymm mp2/aug-cc-pvtz density=current
 ----------------------------------------------------

 -----
 title
 -----
 Symbolic Z-matrix:
 Charge = -1 Multiplicity = 1

                          Input orientation:
 ---------------------------------------------------------------------
 Center     Atomic      Atomic             Coordinates (Angstroms)
 Number     Number       Type             X           Y           Z
 ---------------------------------------------------------------------
      1          8           0        0.000000    0.000000    0.000000
      2         17           0        2.904676    0.000000    0.000000
      3         17           0       -0.393687    1.636049    0.000000
      4          1           0        0.755841    0.000000    0.634226
 ---------------------------------------------------------------------

 SCF Done:  E(RHF) =  -994.509424767     A.U. after   13 cycles
 E2 =    -0.6645789266D+00 EUMP2 =    -0.99517400369327D+03

 Alpha  occ. eigenvalues -- -104.73450-104.52902 -20.47113 -10.45416 -10.25356
 Alpha  occ. eigenvalues --   -7.92135  -7.91866  -7.91850  -7.71968  -7.71957
 Alpha  occ. eigenvalues --   -7.71955  -1.24247  -0.90022  -0.76366  -0.55006
 Alpha  occ. eigenvalues --   -0.44959  -0.44068  -0.31217  -0.28531  -0.18113
 Alpha  occ. eigenvalues --   -0.17669  -0.17511
 Alpha virt. eigenvalues --    0.15506   0.18100   0.22336   0.23203   0.26290
 Alpha virt. eigenvalues --    0.27502   0.28135   0.28793   0.30075   0.31899
 Alpha virt. eigenvalues --    0.33252   0.35015   0.40750   0.41285   0.46124

 Mulliken charges:
               1
     1  O   -0.392569
     2  Cl  -0.911555
     3  Cl   0.066686
     4  H    0.237438
 Sum of Mulliken charges =  -1.00000

 Dipole moment (field-independent basis, Debye):
    X=            -10.9772    Y=             -0.5986    Z=              0.6011  Tot=             11.0099
 Quadrupole moment (field-independent basis, Debye-Ang):
   XX=            -73.1545   YY=            -36.9317   ZZ=            -35.9853
   XY=              0.4807   XZ=              0.3596   YZ=             -0.2143

 Summary of Natural Population Analysis:

                                       Natural Population
                Natural  -----------------------------------------------
    Atom  No    Charge         Core      Valence    Rydberg      Total
 -----------------------------------------------------------------------
      O    1   -0.71408      1.99971     6.60407    0.11031     8.71408
     Cl    2   -0.94640     10.00008     7.79445    0.15188    17.94640
     Cl    3    0.16005      9.99983     6.69521    0.14491    16.83995
      H    4    0.50044      0.00000     0.47760    0.02197     0.49956
 =======================================================================
   * Total *   -1.00000     21.99962    21.57132    0.42906    44.00000

 Normal termination of Gaussian 16 at Wed Sep 22 16:32:56 2021.
