 Gaussian 16, Revision B.01,
 Gaussian 16:  ES64L-G16RevB.01 20-Dec-2017

 --------------------------------------------------------
 #p pop=NBO SP NoSymm mp2/gen Pseudo=read density=current
 --------------------------------------------------------

 -----
 title
 -----
 Symbolic Z-matrix:
 Charge = -1 Multiplicity = 1

                          Input orientation:
 ---------------------------------------------------------------------
 Center     Atomic      Atomic             Coordinates (Angstroms)
 Number     Number       Type             X           Y           Z
 ---------------------------------------------------------------------
      1          8           0        0.000000    0.000000    0.000000
      2         35           0        3.067932    0.000000    0.000000
      3         17           0       -0.391810    1.638264    0.000000
      4          1           0        0.755136    0.000000    0.633634
 ---------------------------------------------------------------------

 SCF Done:  E(RHF) =  -950.511314825     A.U. after   14 cycles
 E2 =    -0.6993951860D+00 EUMP2 =    -0.95121071001123D+03

 Alpha  occ. eigenvalues -- -104.74106 -20.47999 -10.46070  -9.54326  -7.92789
 Alpha  occ. eigenvalues --   -7.92516  -7.92501  -7.29113  -7.29069  -7.29053
 Alpha  occ. eigenvalues --   -2.84219  -2.84209  -2.84189  -2.84144  -2.84142
 Alpha  occ. eigenvalues --   -1.25042  -0.90716  -0.73774  -0.55788  -0.45698
 Alpha  occ. eigenvalues --   -0.44798  -0.31871  -0.29220  -0.16444  -0.15929
 Alpha  occ. eigenvalues --   -0.15799
 Alpha virt. eigenvalues --    0.15039   0.17696   0.22039   0.22965   0.25566
 Alpha virt. eigenvalues --    0.26649   0.27189   0.27961   0.28615   0.31114
 Alpha virt. eigenvalues --    0.32510   0.33270   0.35992   0.39881   0.43961

 Mulliken charges:
               1
     1  O   -0.393555
     2  Br  -0.915486
     3  Cl   0.068255
     4  H    0.240785
 Sum of Mulliken charges =  -1.00000

 Dipole moment (field-independent basis, Debye):
    X=            -11.7959    Y=             -0.5219    Z=              0.5464  Tot=             11.8201
 Quadrupole moment (field-independent basis, Debye-Ang):
   XX=            -83.5820   YY=            -42.9817   ZZ=            -42.2166
   XY=              0.4476   XZ=              0.1752   YZ=             -0.2096

 Summary of Natural Population Analysis:

                                       Natural Population
                Natural  -----------------------------------------------
    Atom  No    Charge         Core      Valence    Rydberg      Total
 -----------------------------------------------------------------------
      O    1   -0.71353      1.99971     6.60373    0.11009     8.71353
     Br    2   -0.94692     27.98852     7.79998    0.15842    35.94692
     Cl    3    0.16419      9.99983     6.69185    0.14412    16.83581
      H    4    0.49626      0.00000     0.48144    0.02229     0.50374
 =======================================================================
   * Total *   -1.00000     39.98806    21.57700    0.43494    62.00000

 Normal termination of Gaussian 16 at Thu Sep 30 14:41:34 2021.
