 Gaussian 16, Revision B.01,
 Gaussian 16:  ES64L-G16RevB.01 20-Dec-2017

 --------------------------------------------------------
 #p pop=NBO SP NoSymm mp2/gen Pseudo=read density=current
 --------------------------------------------------------

 -----
 title
 -----
 Symbolic Z-matrix:
 Charge = -1 Multiplicity = 1

                          Input orientation:
 ---------------------------------------------------------------------
 Center     Atomic      Atomic             Coordinates (Angstroms)
 Number     Number       Type             X           Y           Z
 ---------------------------------------------------------------------
      1          8           0        0.000000    0.000000    0.000000
      2         35           0        3.067932    0.000000    0.000000
      3         17           0       -0.391810    1.638264    0.000000
      4          1           0        0.861894    0.000000    0.497615
 ---------------------------------------------------------------------

 SCF Done:  E(RHF) =  -950.515898947     A.U. after   14 cycles
 E2 =    -0.7006339805D+00 EUMP2 =    -0.95121653292745D+03

 Alpha  occ. eigenvalues -- -104.73763 -20.47342 -10.45721  -9.54890  -7.92439
 Alpha  occ. eigenvalues --   -7.92169  -7.92156  -7.29682  -7.29629  -7.29619
 Alpha  occ. eigenvalues --   -2.84786  -2.84771  -2.84758  -2.84705  -2.84704
 Alpha  occ. eigenvalues --   -1.24251  -0.90312  -0.74455  -0.55122  -0.45172
 Alpha  occ. eigenvalues --   -0.44296  -0.31474  -0.28820  -0.17160  -0.16479
 Alpha  occ. eigenvalues --   -0.16388
 Alpha virt. eigenvalues --    0.15290   0.17882   0.22199   0.22987   0.25380
 Alpha virt. eigenvalues --    0.26632   0.27094   0.28199   0.29101   0.31030
 Alpha virt. eigenvalues --    0.33026   0.33128   0.36100   0.40603   0.44001

 Mulliken charges:
               1
     1  O   -0.422424
     2  Br  -0.896204
     3  Cl   0.060881
     4  H    0.257747
 Sum of Mulliken charges =  -1.00000

 Dipole moment (field-independent basis, Debye):
    X=            -11.3121    Y=             -0.5682    Z=              0.3852  Tot=             11.3329
 Quadrupole moment (field-independent basis, Debye-Ang):
   XX=            -81.7907   YY=            -42.9770   ZZ=            -42.4722
   XY=              0.4399   XZ=              0.1286   YZ=             -0.1600

 Summary of Natural Population Analysis:

                                       Natural Population
                Natural  -----------------------------------------------
    Atom  No    Charge         Core      Valence    Rydberg      Total
 -----------------------------------------------------------------------
      O    1   -0.73478      1.99970     6.62491    0.11017     8.73478
     Br    2   -0.92046     27.98842     7.77604    0.15601    35.92046
     Cl    3    0.16234      9.99982     6.69391    0.14392    16.83766
      H    4    0.49291      0.00000     0.48219    0.02490     0.50709
 =======================================================================
   * Total *   -1.00000     39.98794    21.57705    0.43501    62.00000

 Normal termination of Gaussian 16 at Thu Sep 30 14:40:56 2021.
