 Gaussian 16, Revision B.01,
 Gaussian 16:  ES64L-G16RevB.01 20-Dec-2017

 ----------------------------------------------------
 # opt=(z-matrix) mp2/gen Pseudo=read density=current
 ----------------------------------------------------

 -----
 title
 -----
 Symbolic Z-matrix:
 Charge = -1 Multiplicity = 1

 SCF Done:  E(RHF) =  -950.522801298     A.U. after   13 cycles
 E2 =    -0.7034294257D+00 EUMP2 =    -0.95122623072361D+03
 SCF Done:  E(RHF) =  -950.522744721     A.U. after    9 cycles
 E2 =    -0.7034868406D+00 EUMP2 =    -0.95122623156186D+03
 Optimization completed.
    -- Stationary point found.

                         Standard orientation:
 ---------------------------------------------------------------------
 Center     Atomic      Atomic             Coordinates (Angstroms)
 Number     Number       Type             X           Y           Z
 ---------------------------------------------------------------------
      1          8           0        0.585326    1.627069    0.000000
      2         17           0        2.151010    1.005733    0.000000
      3         35           0       -1.178565   -0.883089    0.000000
      4          1           0       -0.000000    0.794103    0.000000
 ---------------------------------------------------------------------

 The electronic state is 1-A'.
 Alpha  occ. eigenvalues -- -104.73032 -20.46025 -10.44982  -9.55944  -7.91698
 Alpha  occ. eigenvalues --   -7.91435  -7.91425  -7.30745  -7.30677  -7.30676
 Alpha  occ. eigenvalues --   -2.85847  -2.85821  -2.85819  -2.85757  -2.85757
 Alpha  occ. eigenvalues --   -1.22670  -0.89427  -0.75802  -0.53768  -0.44083
 Alpha  occ. eigenvalues --   -0.43266  -0.30705  -0.27958  -0.18507  -0.17509
 Alpha  occ. eigenvalues --   -0.17503
 Alpha virt. eigenvalues --    0.15627   0.18210   0.22395   0.23213   0.25096
 Alpha virt. eigenvalues --    0.26495   0.26697   0.28683   0.30274   0.31976
 Alpha virt. eigenvalues --    0.32366   0.32698   0.35832   0.43426   0.43532

 Mulliken charges:
               1
     1  O   -0.489472
     2  Cl   0.045575
     3  Br  -0.855473
     4  H    0.299370
 Sum of Mulliken charges =  -1.00000

 Dipole moment (field-independent basis, Debye):
    X=              2.6358    Y=              1.1095    Z=              0.0000  Tot=              2.8598
 Quadrupole moment (field-independent basis, Debye-Ang):
   XX=            -50.4152   YY=            -50.0030   ZZ=            -42.8213
   XY=             -7.3247   XZ=              0.0000   YZ=              0.0000

 1\1\GINC-N2174\FOpt\RMP2-FC\Gen\Br1Cl1H1O1(1-)\CGAVINH\30-Sep-2021\1\\
 # opt=(z-matrix) mp2/gen Pseudo=read density=current\\title\\-1,1\O\X,
 1,10.\Cl,1,r1,2,90.\Br,1,r2,2,90.,3,a1,0\H,1,r3,2,OOP,3,a1,0\\r1=1.684
 46532\r2=3.06793175\r3=1.0180566\a1=103.45029769\OOP=90.\\Version=ES64
 L-G16RevB.01\State=1-A'\HF=-950.5227447\MP2=-951.2262316\RMSD=3.347e-0
 9\RMSF=6.533e-04\Dipole=1.0370126,0.4364993,0.\Quadrupole=-1.9840988,-
 1.6776804,3.6617792,-5.445713,0.,0.\PG=CS [SG(Br1Cl1H1O1)]\\@

 Normal termination of Gaussian 16 at Thu Sep 30 14:38:30 2021.
