 Gaussian 16, Revision B.01,
 Gaussian 16:  ES64L-G16RevB.01 20-Dec-2017

 --------------------------------------------------------
 #p pop=NBO SP NoSymm mp2/gen Pseudo=read density=current
 --------------------------------------------------------

 -----
 title
 -----
 Symbolic Z-matrix:
 Charge = -1 Multiplicity = 1

                          Input orientation:
 ---------------------------------------------------------------------
 Center     Atomic      Atomic             Coordinates (Angstroms)
 Number     Number       Type             X           Y           Z
 ---------------------------------------------------------------------
      1          8           0        0.000000    0.000000    0.000000
      2         35           0        3.067932    0.000000    0.000000
      3         17           0       -0.391810    1.638264    0.000000
      4          1           0        0.694287    0.000000    0.694287
 ---------------------------------------------------------------------

 SCF Done:  E(RHF) =  -950.508820358     A.U. after   14 cycles
 E2 =    -0.6988795829D+00 EUMP2 =    -0.95120769994070D+03

 Alpha  occ. eigenvalues -- -104.74261 -20.48309 -10.46229  -9.54049  -7.92948
 Alpha  occ. eigenvalues --   -7.92674  -7.92657  -7.28834  -7.28794  -7.28776
 Alpha  occ. eigenvalues --   -2.83941  -2.83933  -2.83909  -2.83869  -2.83867
 Alpha  occ. eigenvalues --   -1.25416  -0.90893  -0.73448  -0.56096  -0.45942
 Alpha  occ. eigenvalues --   -0.45029  -0.32059  -0.29400  -0.16098  -0.15660
 Alpha  occ. eigenvalues --   -0.15510
 Alpha virt. eigenvalues --    0.14897   0.17604   0.21958   0.22965   0.25664
 Alpha virt. eigenvalues --    0.26646   0.27168   0.27902   0.28468   0.31118
 Alpha virt. eigenvalues --    0.32170   0.33342   0.35897   0.39627   0.43897

 Mulliken charges:
               1
     1  O   -0.383369
     2  Br  -0.925125
     3  Cl   0.071291
     4  H    0.237203
 Sum of Mulliken charges =  -1.00000

 Dipole moment (field-independent basis, Debye):
    X=            -12.0391    Y=             -0.5025    Z=              0.6301  Tot=             12.0660
 Quadrupole moment (field-independent basis, Debye-Ang):
   XX=            -84.4592   YY=            -42.9889   ZZ=            -42.0724
   XY=              0.4553   XZ=              0.1838   YZ=             -0.2334

 Summary of Natural Population Analysis:

                                       Natural Population
                Natural  -----------------------------------------------
    Atom  No    Charge         Core      Valence    Rydberg      Total
 -----------------------------------------------------------------------
      O    1   -0.70297      1.99971     6.59301    0.11025     8.70297
     Br    2   -0.95742     27.98855     7.80927    0.15960    35.95742
     Cl    3    0.16481      9.99984     6.69106    0.14430    16.83519
      H    4    0.49558      0.00000     0.48350    0.02092     0.50442
 =======================================================================
   * Total *   -1.00000     39.98810    21.57683    0.43507    62.00000

 Normal termination of Gaussian 16 at Thu Sep 30 14:41:54 2021.
