 Gaussian 16, Revision B.01,
 Gaussian 16:  ES64L-G16RevB.01 20-Dec-2017

 --------------------------------------------------------
 #p pop=NBO SP NoSymm mp2/gen Pseudo=read density=current
 --------------------------------------------------------

 -----
 title
 -----
 Symbolic Z-matrix:
 Charge = -1 Multiplicity = 1

                          Input orientation:
 ---------------------------------------------------------------------
 Center     Atomic      Atomic             Coordinates (Angstroms)
 Number     Number       Type             X           Y           Z
 ---------------------------------------------------------------------
      1          8           0        0.000000    0.000000    0.000000
      2         35           0        3.067932    0.000000    0.000000
      3         17           0       -0.391810    1.638264    0.000000
      4          1           0        0.945171    0.000000    0.344014
 ---------------------------------------------------------------------

 SCF Done:  E(RHF) =  -950.519573084     A.U. after   13 cycles
 E2 =    -0.7019642774D+00 EUMP2 =    -0.95122153736104D+03

 Alpha  occ. eigenvalues -- -104.73414 -20.46702 -10.45367  -9.55413  -7.92085
 Alpha  occ. eigenvalues --   -7.91818  -7.91806  -7.30210  -7.30149  -7.30144
 Alpha  occ. eigenvalues --   -2.85312  -2.85292  -2.85286  -2.85226  -2.85226
 Alpha  occ. eigenvalues --   -1.23480  -0.89891  -0.75112  -0.54463  -0.44647
 Alpha  occ. eigenvalues --   -0.43798  -0.31093  -0.28410  -0.17830  -0.16988
 Alpha  occ. eigenvalues --   -0.16939
 Alpha virt. eigenvalues --    0.15481   0.18050   0.22322   0.23055   0.25230
 Alpha virt. eigenvalues --    0.26581   0.26923   0.28464   0.29874   0.30799
 Alpha virt. eigenvalues --    0.32904   0.33277   0.36050   0.41633   0.43938

 Mulliken charges:
               1
     1  O   -0.457240
     2  Br  -0.876302
     3  Cl   0.053519
     4  H    0.280023
 Sum of Mulliken charges =  -1.00000

 Dipole moment (field-independent basis, Debye):
    X=            -10.8727    Y=             -0.6182    Z=              0.2398  Tot=             10.8929
 Quadrupole moment (field-independent basis, Debye-Ang):
   XX=            -80.1364   YY=            -42.9845   ZZ=            -42.6644
   XY=              0.4399   XZ=              0.0706   YZ=             -0.1081

 Summary of Natural Population Analysis:

                                       Natural Population
                Natural  -----------------------------------------------
    Atom  No    Charge         Core      Valence    Rydberg      Total
 -----------------------------------------------------------------------
      O    1   -0.75252      1.99970     6.64245    0.11038     8.75252
     Br    2   -0.89135     27.98828     7.74914    0.15392    35.89135
     Cl    3    0.15998      9.99981     6.69623    0.14398    16.84002
      H    4    0.48389      0.00000     0.48912    0.02699     0.51611
 =======================================================================
   * Total *   -1.00000     39.98779    21.57694    0.43527    62.00000

 Normal termination of Gaussian 16 at Thu Sep 30 14:40:07 2021.
