 Gaussian 16, Revision B.01,
 Gaussian 16:  ES64L-G16RevB.01 20-Dec-2017

 -------------------------------------------------
 #p opt=(z-matrix) mp2/aug-cc-pvtz density=current
 -------------------------------------------------

 -----
 title
 -----
 Symbolic Z-matrix:
 Charge =  0 Multiplicity = 1

 SCF Done:  E(RHF) =  -534.918505993     A.U. after   12 cycles
 E2 =    -0.4468224007D+00 EUMP2 =    -0.53536532839331D+03
 SCF Done:  E(RHF) =  -534.922958542     A.U. after   11 cycles
 E2 =    -0.4476204385D+00 EUMP2 =    -0.53537057898057D+03
 SCF Done:  E(RHF) =  -534.922588377     A.U. after   11 cycles
 E2 =    -0.4486631521D+00 EUMP2 =    -0.53537125152901D+03
 SCF Done:  E(RHF) =  -534.921951373     A.U. after    9 cycles
 E2 =    -0.4493949403D+00 EUMP2 =    -0.53537134631294D+03
 SCF Done:  E(RHF) =  -534.921851697     A.U. after    8 cycles
 E2 =    -0.4494966923D+00 EUMP2 =    -0.53537134838909D+03
 Optimization completed.
    -- Stationary point found.

                         Standard orientation:
 ---------------------------------------------------------------------
 Center     Atomic      Atomic             Coordinates (Angstroms)
 Number     Number       Type             X           Y           Z
 ---------------------------------------------------------------------
      1          8           0        0.036374    1.101524   -0.000000
      2         17           0        0.036374   -0.595477   -0.000000
      3          1           0       -0.909347    1.310914    0.000000
 ---------------------------------------------------------------------

 The electronic state is 1-A'.
 Alpha  occ. eigenvalues -- -104.89290 -20.64558 -10.61206  -8.07923  -8.07617
 Alpha  occ. eigenvalues --   -8.07602  -1.41174  -1.06214  -0.72040  -0.61342
 Alpha  occ. eigenvalues --   -0.60305  -0.46941  -0.44545
 Alpha virt. eigenvalues --    0.02854   0.06125   0.10984   0.11594   0.13966
 Alpha virt. eigenvalues --    0.15845   0.17324   0.17591   0.18846   0.24302
 Alpha virt. eigenvalues --    0.25834   0.31042   0.32309   0.38882   0.39416

 Mulliken charges:
               1
     1  O   -0.403430
     2  Cl   0.158546
     3  H    0.244885
 Sum of Mulliken charges =  -0.00000

 Dipole moment (field-independent basis, Debye):
    X=             -1.4911    Y=              0.2380    Z=              0.0000  Tot=              1.5100
 Quadrupole moment (field-independent basis, Debye-Ang):
   XX=            -17.2294   YY=            -16.8988   ZZ=            -19.5421
   XY=             -2.5333   XZ=              0.0000   YZ=              0.0000

 Normal termination of Gaussian 16 at Thu Nov  4 23:25:02 2021.
