 Gaussian 16, Revision B.01,
 Gaussian 16:  ES64L-G16RevB.01 20-Dec-2017

 ----------------------------------------------------
 #p pop=NBO SP NoSymm mp2/aug-cc-pvtz density=current
 ----------------------------------------------------

 -----
 title
 -----
 Symbolic Z-matrix:
 Charge = -1 Multiplicity = 1

                          Input orientation:
 ---------------------------------------------------------------------
 Center     Atomic      Atomic             Coordinates (Angstroms)
 Number     Number       Type             X           Y           Z
 ---------------------------------------------------------------------
      1          8           0        0.000000    0.000000    0.000000
      2         35           0        3.073817    0.000000    0.000000
      3         17           0       -0.390921    1.638333    0.000000
      4          1           0        0.944889    0.000000    0.343912
 ---------------------------------------------------------------------

 SCF Done:  E(RHF) =  -3107.47527570     A.U. after   13 cycles
 E2 =    -0.7027974962D+00 EUMP2 =    -0.31081780731931D+04

 Alpha  occ. eigenvalues -- -489.75127-104.73440 -64.89161 -58.24612 -58.24606
 Alpha  occ. eigenvalues --  -58.24604 -20.46735 -10.45394  -9.56413  -7.92112
 Alpha  occ. eigenvalues --   -7.91844  -7.91833  -7.17191  -7.17139  -7.17135
 Alpha  occ. eigenvalues --   -2.91361  -2.91340  -2.91335  -2.91273  -2.91273
 Alpha  occ. eigenvalues --   -1.23525  -0.89916  -0.72528  -0.54458  -0.44680
 Alpha  occ. eigenvalues --   -0.43833  -0.31119  -0.28436  -0.18009  -0.17169
 Alpha  occ. eigenvalues --   -0.17121
 Alpha virt. eigenvalues --    0.15479   0.17979   0.21647   0.22668   0.24151
 Alpha virt. eigenvalues --    0.24756   0.25016   0.28477   0.29572   0.30705
 Alpha virt. eigenvalues --    0.32720   0.33527   0.36483   0.41637   0.44194

 Mulliken charges:
               1
     1  O   -0.453988
     2  Br  -0.869230
     3  Cl   0.055455
     4  H    0.267763
 Sum of Mulliken charges =  -1.00000

 Dipole moment (field-independent basis, Debye):
    X=            -10.9146    Y=             -0.6158    Z=              0.2450  Tot=             10.9347
 Quadrupole moment (field-independent basis, Debye-Ang):
   XX=            -80.6945   YY=            -43.3248   ZZ=            -43.0126
   XY=              0.4337   XZ=              0.0845   YZ=             -0.1088

 Summary of Natural Population Analysis:

                                       Natural Population
                Natural  -----------------------------------------------
    Atom  No    Charge         Core      Valence    Rydberg      Total
 -----------------------------------------------------------------------
      O    1   -0.75320      1.99970     6.64311    0.11039     8.75320
     Br    2   -0.89159     27.98818     7.74866    0.15475    35.89159
     Cl    3    0.16040      9.99981     6.69593    0.14386    16.83960
      H    4    0.48439      0.00000     0.48876    0.02685     0.51561
 =======================================================================
   * Total *   -1.00000     39.98769    21.57645    0.43586    62.00000

 Normal termination of Gaussian 16 at Thu Sep 23 16:34:00 2021.
