 Gaussian 16, Revision B.01,
 Gaussian 16:  ES64L-G16RevB.01 20-Dec-2017

 ----------------------------------------------------
 #p pop=NBO SP NoSymm mp2/aug-cc-pvtz density=current
 ----------------------------------------------------

 -----
 title
 -----
 Symbolic Z-matrix:
 Charge = -1 Multiplicity = 1

                          Input orientation:
 ---------------------------------------------------------------------
 Center     Atomic      Atomic             Coordinates (Angstroms)
 Number     Number       Type             X           Y           Z
 ---------------------------------------------------------------------
      1          8           0        0.000000    0.000000    0.000000
      2         35           0        3.073817    0.000000    0.000000
      3         17           0       -0.390921    1.638333    0.000000
      4          1           0        0.628968    0.000000    0.749574
 ---------------------------------------------------------------------

 SCF Done:  E(RHF) =  -3107.46201186     A.U. after   14 cycles
 E2 =    -0.6991967291D+00 EUMP2 =    -0.31081612085880D+04

 Alpha  occ. eigenvalues -- -489.73505-104.74422 -64.87533 -58.22984 -58.22979
 Alpha  occ. eigenvalues --  -58.22974 -20.48621 -10.46393  -9.54783  -7.93113
 Alpha  occ. eigenvalues --   -7.92837  -7.92820  -7.15548  -7.15518  -7.15501
 Alpha  occ. eigenvalues --   -2.89722  -2.89715  -2.89689  -2.89652  -2.89649
 Alpha  occ. eigenvalues --   -1.25800  -0.91067  -0.70531  -0.56392  -0.46188
 Alpha  occ. eigenvalues --   -0.45269  -0.32252  -0.29582  -0.15957  -0.15587
 Alpha  occ. eigenvalues --   -0.15418
 Alpha virt. eigenvalues --    0.14759   0.17477   0.21673   0.22552   0.24376
 Alpha virt. eigenvalues --    0.25116   0.25212   0.27452   0.27804   0.31015
 Alpha virt. eigenvalues --    0.31844   0.33608   0.36312   0.39415   0.43963

 Mulliken charges:
               1
     1  O   -0.374472
     2  Br  -0.935134
     3  Cl   0.075384
     4  H    0.234222
 Sum of Mulliken charges =  -1.00000

 Dipole moment (field-independent basis, Debye):
    X=            -12.3119    Y=             -0.4850    Z=              0.7227  Tot=             12.3426
 Quadrupole moment (field-independent basis, Debye-Ang):
   XX=            -85.8192   YY=            -43.3389   ZZ=            -42.2684
   XY=              0.4593   XZ=              0.1995   YZ=             -0.2576

 Summary of Natural Population Analysis:

                                       Natural Population
                Natural  -----------------------------------------------
    Atom  No    Charge         Core      Valence    Rydberg      Total
 -----------------------------------------------------------------------
      O    1   -0.69290      1.99971     6.58273    0.11047     8.69290
     Br    2   -0.96650     27.98849     7.81666    0.16135    35.96650
     Cl    3    0.16548      9.99984     6.69025    0.14443    16.83452
      H    4    0.49392      0.00000     0.48670    0.01938     0.50608
 =======================================================================
   * Total *   -1.00000     39.98804    21.57633    0.43563    62.00000

 Normal termination of Gaussian 16 at Thu Sep 23 16:36:00 2021.
