 Gaussian 16, Revision B.01,
 Gaussian 16:  ES64L-G16RevB.01 20-Dec-2017

 ----------------------------------------------------
 #p pop=NBO SP NoSymm mp2/aug-cc-pvtz density=current
 ----------------------------------------------------

 -----
 title
 -----
 Symbolic Z-matrix:
 Charge = -1 Multiplicity = 1

                          Input orientation:
 ---------------------------------------------------------------------
 Center     Atomic      Atomic             Coordinates (Angstroms)
 Number     Number       Type             X           Y           Z
 ---------------------------------------------------------------------
      1          8           0        0.000000    0.000000    0.000000
      2         35           0        3.073817    0.000000    0.000000
      3         17           0       -0.390921    1.638333    0.000000
      4          1           0        0.861730    0.000000    0.497520
 ---------------------------------------------------------------------

 SCF Done:  E(RHF) =  -3107.47161670     A.U. after   13 cycles
 E2 =    -0.7014264785D+00 EUMP2 =    -0.31081730431776D+04

 Alpha  occ. eigenvalues -- -489.74609-104.73787 -64.88640 -58.24091 -58.24085
 Alpha  occ. eigenvalues --  -58.24082 -20.47371 -10.45745  -9.55890  -7.92463
 Alpha  occ. eigenvalues --   -7.92193  -7.92180  -7.16663  -7.16619  -7.16610
 Alpha  occ. eigenvalues --   -2.90835  -2.90820  -2.90807  -2.90752  -2.90752
 Alpha  occ. eigenvalues --   -1.24290  -0.90335  -0.71863  -0.55121  -0.45200
 Alpha  occ. eigenvalues --   -0.44328  -0.31497  -0.28843  -0.17343  -0.16662
 Alpha  occ. eigenvalues --   -0.16572
 Alpha virt. eigenvalues --    0.15294   0.17823   0.21705   0.22573   0.24194
 Alpha virt. eigenvalues --    0.24882   0.25054   0.28166   0.28738   0.30909
 Alpha virt. eigenvalues --    0.32939   0.33283   0.36667   0.40596   0.44253

 Mulliken charges:
               1
     1  O   -0.418649
     2  Br  -0.890387
     3  Cl   0.062896
     4  H    0.246140
 Sum of Mulliken charges =  -1.00000

 Dipole moment (field-independent basis, Debye):
    X=            -11.3511    Y=             -0.5663    Z=              0.3923  Tot=             11.3720
 Quadrupole moment (field-independent basis, Debye-Ang):
   XX=            -82.3368   YY=            -43.3172   ZZ=            -42.8191
   XY=              0.4334   XZ=              0.1472   YZ=             -0.1610

 Summary of Natural Population Analysis:

                                       Natural Population
                Natural  -----------------------------------------------
    Atom  No    Charge         Core      Valence    Rydberg      Total
 -----------------------------------------------------------------------
      O    1   -0.73515      1.99970     6.62529    0.11015     8.73515
     Br    2   -0.92099     27.98832     7.77588    0.15679    35.92099
     Cl    3    0.16271      9.99982     6.69364    0.14383    16.83729
      H    4    0.49343      0.00000     0.48183    0.02473     0.50657
 =======================================================================
   * Total *   -1.00000     39.98785    21.57664    0.43551    62.00000

 Normal termination of Gaussian 16 at Thu Sep 23 16:34:39 2021.
