 Gaussian 16, Revision B.01,
 Gaussian 16:  ES64L-G16RevB.01 20-Dec-2017

 ----------------------------------------------------
 #p pop=NBO SP NoSymm mp2/aug-cc-pvtz density=current
 ----------------------------------------------------

 -----
 title
 -----
 Symbolic Z-matrix:
 Charge = -1 Multiplicity = 1

                          Input orientation:
 ---------------------------------------------------------------------
 Center     Atomic      Atomic             Coordinates (Angstroms)
 Number     Number       Type             X           Y           Z
 ---------------------------------------------------------------------
      1          8           0        0.000000    0.000000    0.000000
      2         35           0        3.073817    0.000000    0.000000
      3         17           0       -0.390921    1.638333    0.000000
      4          1           0        0.998920    0.000000    0.176137
 ---------------------------------------------------------------------

 SCF Done:  E(RHF) =  -3107.47762117     A.U. after   13 cycles
 E2 =    -0.7039065883D+00 EUMP2 =    -0.31081815277626D+04

 Alpha  occ. eigenvalues -- -489.75509-104.73167 -64.89545 -58.24996 -58.24991
 Alpha  occ. eigenvalues --  -58.24990 -20.46247 -10.45117  -9.56799  -7.91834
 Alpha  occ. eigenvalues --   -7.91570  -7.91559  -7.17581  -7.17524  -7.17523
 Alpha  occ. eigenvalues --   -2.91752  -2.91725  -2.91724  -2.91660  -2.91659
 Alpha  occ. eigenvalues --   -1.22938  -0.89582  -0.73037  -0.53948  -0.44275
 Alpha  occ. eigenvalues --   -0.43450  -0.30837  -0.28112  -0.18499  -0.17545
 Alpha  occ. eigenvalues --   -0.17530
 Alpha virt. eigenvalues --    0.15587   0.18087   0.21592   0.22761   0.24129
 Alpha virt. eigenvalues --    0.24662   0.25006   0.28673   0.30447   0.30745
 Alpha virt. eigenvalues --    0.32503   0.33246   0.36074   0.42799   0.44042

 Mulliken charges:
               1
     1  O   -0.483618
     2  Br  -0.852440
     3  Cl   0.050055
     4  H    0.286003
 Sum of Mulliken charges =  -1.00000

 Dipole moment (field-independent basis, Debye):
    X=            -10.5959    Y=             -0.6560    Z=              0.1161  Tot=             10.6168
 Quadrupole moment (field-independent basis, Debye-Ang):
   XX=            -79.4891   YY=            -43.3373   ZZ=            -43.1311
   XY=              0.4375   XZ=              0.0340   YZ=             -0.0548

 Summary of Natural Population Analysis:

                                       Natural Population
                Natural  -----------------------------------------------
    Atom  No    Charge         Core      Valence    Rydberg      Total
 -----------------------------------------------------------------------
      O    1   -0.76452      1.99970     6.65438    0.11044     8.76452
     Br    2   -0.86806     27.98806     7.72661    0.15339    35.86806
     Cl    3    0.15833      9.99980     6.69782    0.14405    16.84167
      H    4    0.47425      0.00000     0.49759    0.02816     0.52575
 =======================================================================
   * Total *   -1.00000     39.98756    21.57641    0.43604    62.00000

 Normal termination of Gaussian 16 at Thu Sep 23 16:33:20 2021.
