 Gaussian 16, Revision B.01,
 Gaussian 16:  ES64L-G16RevB.01 20-Dec-2017

 ----------------------------------------------------
 #p pop=NBO SP NoSymm mp2/aug-cc-pvtz density=current
 ----------------------------------------------------

 -----
 title
 -----
 Symbolic Z-matrix:
 Charge = -1 Multiplicity = 1

                          Input orientation:
 ---------------------------------------------------------------------
 Center     Atomic      Atomic             Coordinates (Angstroms)
 Number     Number       Type             X           Y           Z
 ---------------------------------------------------------------------
      1          8           0        0.000000    0.000000    0.000000
      2         35           0        3.073817    0.000000    0.000000
      3         17           0       -0.390921    1.638333    0.000000
      4          1           0        0.975952    0.000000    0.261506
 ---------------------------------------------------------------------

 SCF Done:  E(RHF) =  -3107.47663181     A.U. after   13 cycles
 E2 =    -0.7034116090D+00 EUMP2 =    -0.31081800434156D+04

 Alpha  occ. eigenvalues -- -489.75342-104.73288 -64.89377 -58.24828 -58.24822
 Alpha  occ. eigenvalues --  -58.24821 -20.46462 -10.45240  -9.56630  -7.91957
 Alpha  occ. eigenvalues --   -7.91692  -7.91681  -7.17410  -7.17355  -7.17353
 Alpha  occ. eigenvalues --   -2.91581  -2.91556  -2.91554  -2.91490  -2.91490
 Alpha  occ. eigenvalues --   -1.23197  -0.89731  -0.72812  -0.54173  -0.44454
 Alpha  occ. eigenvalues --   -0.43619  -0.30961  -0.28256  -0.18285  -0.17380
 Alpha  occ. eigenvalues --   -0.17351
 Alpha virt. eigenvalues --    0.15543   0.18041   0.21616   0.22718   0.24138
 Alpha virt. eigenvalues --    0.24703   0.25008   0.28593   0.30099   0.30592
 Alpha virt. eigenvalues --    0.32602   0.33480   0.36280   0.42228   0.44131

 Mulliken charges:
               1
     1  O   -0.470621
     2  Br  -0.859920
     3  Cl   0.052393
     4  H    0.278148
 Sum of Mulliken charges =  -1.00000

 Dipole moment (field-independent basis, Debye):
    X=            -10.7350    Y=             -0.6380    Z=              0.1784  Tot=             10.7554
 Quadrupole moment (field-independent basis, Debye-Ang):
   XX=            -80.0157   YY=            -43.3312   ZZ=            -43.0816
   XY=              0.4355   XZ=              0.0569   YZ=             -0.0819

 Summary of Natural Population Analysis:

                                       Natural Population
                Natural  -----------------------------------------------
    Atom  No    Charge         Core      Valence    Rydberg      Total
 -----------------------------------------------------------------------
      O    1   -0.75980      1.99970     6.64966    0.11044     8.75980
     Br    2   -0.87850     27.98811     7.73641    0.15397    35.87850
     Cl    3    0.15927      9.99981     6.69697    0.14395    16.84073
      H    4    0.47902      0.00000     0.49337    0.02761     0.52098
 =======================================================================
   * Total *   -1.00000     39.98762    21.57641    0.43597    62.00000

 Normal termination of Gaussian 16 at Thu Sep 23 16:33:40 2021.
