 Gaussian 16, Revision B.01,
 Gaussian 16:  ES64L-G16RevB.01 20-Dec-2017

 -------------------------------------------------
 #p opt=(z-matrix) mp2/aug-cc-pvtz density=current
 -------------------------------------------------

 -----
 title
 -----
 Symbolic Z-matrix:
 Charge = -1 Multiplicity = 1

 SCF Done:  E(RHF) =  -3107.47842829     A.U. after   13 cycles
 E2 =    -0.7043380929D+00 EUMP2 =    -0.31081827663780D+04
 Optimization completed.
    -- Stationary point found.
 SCF Done:  E(RHF) =  -3107.47817254     A.U. after   11 cycles
 E2 =    -0.7042792243D+00 EUMP2 =    -0.31081824517635D+04
 SCF Done:  E(RHF) =  -3107.47820832     A.U. after    7 cycles
 E2 =    -0.7042438111D+00 EUMP2 =    -0.31081824521288D+04
 Optimization completed.
 SCF Done:  E(RHF) =  -3107.47744892     A.U. after   11 cycles
 E2 =    -0.7040745503D+00 EUMP2 =    -0.31081815234704D+04
 SCF Done:  E(RHF) =  -3107.47756679     A.U. after    8 cycles
 E2 =    -0.7039605265D+00 EUMP2 =    -0.31081815273204D+04
 SCF Done:  E(RHF) =  -3107.47762116     A.U. after    7 cycles
 E2 =    -0.7039065904D+00 EUMP2 =    -0.31081815277538D+04
 SCF Done:  E(RHF) =  -3107.47638932     A.U. after   12 cycles
 E2 =    -0.7036457803D+00 EUMP2 =    -0.31081800351038D+04
 SCF Done:  E(RHF) =  -3107.47663171     A.U. after    8 cycles
 E2 =    -0.7034117046D+00 EUMP2 =    -0.31081800434117D+04
 SCF Done:  E(RHF) =  -3107.47497786     A.U. after   12 cycles
 E2 =    -0.7030825984D+00 EUMP2 =    -0.31081780604634D+04
 SCF Done:  E(RHF) =  -3107.47527572     A.U. after    9 cycles
 E2 =    -0.7027974695D+00 EUMP2 =    -0.31081780731929D+04
 E2 =    -0.7024243152D+00 EUMP2 =    -0.31081756915045D+04
 E2 =    -0.7021200754D+00 EUMP2 =    -0.31081757070637D+04
 SCF Done:  E(RHF) =  -3107.47129932     A.U. after   11 cycles
 E2 =    -0.7017272686D+00 EUMP2 =    -0.31081730265902D+04
 SCF Done:  E(RHF) =  -3107.47161653     A.U. after    9 cycles
 E2 =    -0.7014266554D+00 EUMP2 =    -0.31081730431811D+04
 SCF Done:  E(RHF) =  -3107.46912535     A.U. after   11 cycles
 E2 =    -0.7010382683D+00 EUMP2 =    -0.31081701636202D+04
 SCF Done:  E(RHF) =  -3107.46942046     A.U. after    9 cycles
 E2 =    -0.7007589554D+00 EUMP2 =    -0.31081701794122D+04
 SCF Done:  E(RHF) =  -3107.46679406     A.U. after   11 cycles
 E2 =    -0.7003974816D+00 EUMP2 =    -0.31081671915421D+04
 SCF Done:  E(RHF) =  -3107.46705508     A.U. after    9 cycles
 E2 =    -0.7001501400D+00 EUMP2 =    -0.31081672052220D+04
 SCF Done:  E(RHF) =  -3107.46434995     A.U. after   11 cycles
 E2 =    -0.6998348386D+00 EUMP2 =    -0.31081641847870D+04
 SCF Done:  E(RHF) =  -3107.46457142     A.U. after    9 cycles
 E2 =    -0.6996242689D+00 EUMP2 =    -0.31081641956893D+04
    -- Stationary point found.
 SCF Done:  E(RHF) =  -3107.46183073     A.U. after   12 cycles
 E2 =    -0.6993698151D+00 EUMP2 =    -0.31081612005444D+04
 SCF Done:  E(RHF) =  -3107.46201203     A.U. after    8 cycles
 E2 =    -0.6991965629D+00 EUMP2 =    -0.31081612085914D+04
 Optimization completed.
    -- Stationary point found.

                         Standard orientation:
 ---------------------------------------------------------------------
 Center     Atomic      Atomic             Coordinates (Angstroms)
 Number     Number       Type             X           Y           Z
 ---------------------------------------------------------------------
      1          8           0        1.399494    1.008601   -0.071358
      2         17           0        2.339614   -0.387071    0.000919
      3         35           0       -1.479493   -0.066219   -0.003877
      4          1           0        0.812850    0.829086    0.690928
 ---------------------------------------------------------------------

 The electronic state is 1-A.
 Alpha  occ. eigenvalues -- -489.73505-104.74422 -64.87533 -58.22984 -58.22979
 Alpha  occ. eigenvalues --  -58.22974 -20.48621 -10.46393  -9.54783  -7.93113
 Alpha  occ. eigenvalues --   -7.92837  -7.92820  -7.15548  -7.15518  -7.15501
 Alpha  occ. eigenvalues --   -2.89722  -2.89715  -2.89689  -2.89652  -2.89649
 Alpha  occ. eigenvalues --   -1.25800  -0.91067  -0.70531  -0.56393  -0.46188
 Alpha  occ. eigenvalues --   -0.45269  -0.32252  -0.29582  -0.15957  -0.15587
 Alpha  occ. eigenvalues --   -0.15418
 Alpha virt. eigenvalues --    0.14759   0.17477   0.21673   0.22552   0.24376
 Alpha virt. eigenvalues --    0.25116   0.25212   0.27452   0.27804   0.31015
 Alpha virt. eigenvalues --    0.31844   0.33608   0.36312   0.39415   0.43963

 Mulliken charges:
               1
     1  O   -0.374470
     2  Cl   0.075384
     3  Br  -0.935135
     4  H    0.234220
 Sum of Mulliken charges =  -1.00000

 Dipole moment (field-independent basis, Debye):
    X=              4.6419    Y=             -0.0468    Z=              0.7701  Tot=              4.7056
 Quadrupole moment (field-independent basis, Debye-Ang):
   XX=            -58.5078   YY=            -43.4192   ZZ=            -42.3931
   XY=             -2.1845   XZ=              0.8494   YZ=              0.9712

 Normal termination of Gaussian 16 at Thu Sep 23 16:03:38 2021.
