 Gaussian 16, Revision B.01,
 Gaussian 16:  ES64L-G16RevB.01 20-Dec-2017

 ----------------------------------------------------
 #p pop=NBO SP NoSymm mp2/aug-cc-pvtz density=current
 ----------------------------------------------------

 -----
 title
 -----
 Symbolic Z-matrix:
 Charge = -1 Multiplicity = 1

                          Input orientation:
 ---------------------------------------------------------------------
 Center     Atomic      Atomic             Coordinates (Angstroms)
 Number     Number       Type             X           Y           Z
 ---------------------------------------------------------------------
      1          8           0        0.000000    0.000000    0.000000
      2         35           0        3.073817    0.000000    0.000000
      3         17           0       -0.390921    1.638333    0.000000
      4          1           0        0.755021    0.000000    0.633538
 ---------------------------------------------------------------------

 SCF Done:  E(RHF) =  -3107.46705529     A.U. after   14 cycles
 E2 =    -0.7001499259D+00 EUMP2 =    -0.31081672052164D+04

 Alpha  occ. eigenvalues -- -489.74047-104.74127 -64.88076 -58.23528 -58.23522
 Alpha  occ. eigenvalues --  -58.23518 -20.48025 -10.46092  -9.55326  -7.92810
 Alpha  occ. eigenvalues --   -7.92537  -7.92522  -7.16095  -7.16058  -7.16045
 Alpha  occ. eigenvalues --   -2.90268  -2.90257  -2.90237  -2.90192  -2.90190
 Alpha  occ. eigenvalues --   -1.25078  -0.90736  -0.71172  -0.55794  -0.45723
 Alpha  occ. eigenvalues --   -0.44826  -0.31892  -0.29240  -0.16630  -0.16114
 Alpha  occ. eigenvalues --   -0.15984
 Alpha virt. eigenvalues --    0.15048   0.17647   0.21719   0.22530   0.24269
 Alpha virt. eigenvalues --    0.25009   0.25122   0.27805   0.28173   0.31014
 Alpha virt. eigenvalues --    0.32549   0.33359   0.36551   0.39868   0.44179

 Mulliken charges:
               1
     1  O   -0.391613
     2  Br  -0.912762
     3  Cl   0.070289
     4  H    0.234086
 Sum of Mulliken charges =  -1.00000

 Dipole moment (field-independent basis, Debye):
    X=            -11.8322    Y=             -0.5203    Z=              0.5548  Tot=             11.8567
 Quadrupole moment (field-independent basis, Debye-Ang):
   XX=            -84.1157   YY=            -43.3219   ZZ=            -42.5626
   XY=              0.4411   XZ=              0.1967   YZ=             -0.2107

 Summary of Natural Population Analysis:

                                       Natural Population
                Natural  -----------------------------------------------
    Atom  No    Charge         Core      Valence    Rydberg      Total
 -----------------------------------------------------------------------
      O    1   -0.71358      1.99971     6.60384    0.11003     8.71358
     Br    2   -0.94762     27.98843     7.80004    0.15916    35.94762
     Cl    3    0.16450      9.99983     6.69161    0.14405    16.83550
      H    4    0.49670      0.00000     0.48120    0.02210     0.50330
 =======================================================================
   * Total *   -1.00000     39.98797    21.57669    0.43533    62.00000

 Normal termination of Gaussian 16 at Thu Sep 23 16:35:19 2021.
