 Gaussian 16, Revision B.01,
 Gaussian 16:  ES64L-G16RevB.01 20-Dec-2017

 ------------------------------------------------
 #p opt=(z-matrix,tight) mp2/aug-cc-pvtz freq=anh
 ------------------------------------------------

 -----
 title
 -----
 Symbolic Z-matrix:
 Charge = -1 Multiplicity = 1

 SCF Done:  E(RHF) =  -2648.60719872     A.U. after   11 cycles
 E2 =    -0.5189862991D+00 EUMP2 =    -0.26491261850219D+04
 SCF Done:  E(RHF) =  -2648.60720027     A.U. after    4 cycles
 E2 =    -0.5189847580D+00 EUMP2 =    -0.26491261850271D+04
 SCF Done:  E(RHF) =  -2648.60720110     A.U. after    3 cycles
 E2 =    -0.5189839369D+00 EUMP2 =    -0.26491261850335D+04
 Optimization completed.
    -- Stationary point found.
 Normal termination of Gaussian 16 at Fri Oct 22 15:34:03 2021.

 ----------------------------------------------------------------------
 #P Geom=AllCheck Guess=TCheck SCRF=Check GenChk RMP2(FC)/Aug-CC-pVTZ F
 req
 ----------------------------------------------------------------------

 Structure from the checkpoint file:  "/gscratch/ilahie/mccoygrp/hocl/2nd_basis/br_hoh_tz_eq.chk"
 -----
 title
 -----
 Charge = -1 Multiplicity = 1

                         Standard orientation:
 ---------------------------------------------------------------------
 Center     Atomic      Atomic             Coordinates (Angstroms)
 Number     Number       Type             X           Y           Z
 ---------------------------------------------------------------------
      1          8           0        0.020904    2.550600    0.000000
      2          1           0        0.020904    1.562837    0.000000
      3          1           0       -0.919797    2.746051    0.000000
      4         35           0        0.020904   -0.706105    0.000000
 ---------------------------------------------------------------------

 SCF Done:  E(RHF) =  -2648.60720110     A.U. after    1 cycles
 E2 =    -0.5189839334D+00 EUMP2 =    -0.26491261850300D+04
 E2 =    -0.5189839334D+00 EUMP2 =    -0.26491261850300D+04
 SCF Done:  E(RHF) =  -2648.60716782     A.U. after    7 cycles
 E2 =    -0.5190178196D+00 EUMP2 =    -0.26491261856380D+04
 E2 =    -0.5190178196D+00 EUMP2 =    -0.26491261856380D+04
 SCF Done:  E(RHF) =  -2648.60723385     A.U. after    7 cycles
 E2 =    -0.5189501643D+00 EUMP2 =    -0.26491261840137D+04
 E2 =    -0.5189501643D+00 EUMP2 =    -0.26491261840137D+04
 SCF Done:  E(RHF) =  -2648.60724249     A.U. after    8 cycles
 E2 =    -0.5189802808D+00 EUMP2 =    -0.26491262227671D+04
 E2 =    -0.5189802808D+00 EUMP2 =    -0.26491262227671D+04
 SCF Done:  E(RHF) =  -2648.60715336     A.U. after    8 cycles
 E2 =    -0.5189920055D+00 EUMP2 =    -0.26491261453700D+04
 E2 =    -0.5189920055D+00 EUMP2 =    -0.26491261453700D+04
 SCF Done:  E(RHF) =  -2648.60719551     A.U. after    8 cycles
 E2 =    -0.5189861063D+00 EUMP2 =    -0.26491261816187D+04
 E2 =    -0.5189861063D+00 EUMP2 =    -0.26491261816187D+04
 SCF Done:  E(RHF) =  -2648.60719551     A.U. after    8 cycles
 E2 =    -0.5189861063D+00 EUMP2 =    -0.26491261816187D+04
 E2 =    -0.5189861063D+00 EUMP2 =    -0.26491261816187D+04
 SCF Done:  E(RHF) =  -2648.60700606     A.U. after    7 cycles
 E2 =    -0.5191124872D+00 EUMP2 =    -0.26491261185428D+04
 E2 =    -0.5191124872D+00 EUMP2 =    -0.26491261185428D+04
 SCF Done:  E(RHF) =  -2648.60735029     A.U. after    7 cycles
 E2 =    -0.5188640472D+00 EUMP2 =    -0.26491262143346D+04
 E2 =    -0.5188640472D+00 EUMP2 =    -0.26491262143346D+04
 SCF Done:  E(RHF) =  -2648.60655463     A.U. after    9 cycles
 E2 =    -0.5195575601D+00 EUMP2 =    -0.26491261121921D+04
 E2 =    -0.5195575601D+00 EUMP2 =    -0.26491261121921D+04
 SCF Done:  E(RHF) =  -2648.60768924     A.U. after    9 cycles
 E2 =    -0.5184136699D+00 EUMP2 =    -0.26491261029126D+04
 E2 =    -0.5184136699D+00 EUMP2 =    -0.26491261029126D+04
 SCF Done:  E(RHF) =  -2648.60673465     A.U. after    8 cycles
 E2 =    -0.5193498718D+00 EUMP2 =    -0.26491260845178D+04
 E2 =    -0.5193498718D+00 EUMP2 =    -0.26491260845178D+04
 SCF Done:  E(RHF) =  -2648.60746264     A.U. after    8 cycles
 E2 =    -0.5186180312D+00 EUMP2 =    -0.26491260806734D+04
 E2 =    -0.5186180312D+00 EUMP2 =    -0.26491260806734D+04

 Alpha  occ. eigenvalues -- -489.74071 -64.88097 -58.23545 -58.23544 -58.23544
 Alpha  occ. eigenvalues --  -20.38735  -9.55342  -7.16099  -7.16077  -7.16073
 Alpha  occ. eigenvalues --   -2.90264  -2.90256  -2.90251  -2.90229  -2.90229
 Alpha  occ. eigenvalues --   -1.17196  -0.71235  -0.52915  -0.41632  -0.33336
 Alpha  occ. eigenvalues --   -0.16662  -0.16130  -0.16087
 Alpha virt. eigenvalues --    0.13596   0.17396   0.23373   0.24169   0.24843
 Alpha virt. eigenvalues --    0.27538   0.29595   0.29918   0.33888   0.34921
 Alpha virt. eigenvalues --    0.39906   0.41110   0.41708   0.46390   0.48137

 Mulliken charges:
               1
     1  O   -0.531292
     2  H    0.292627
     3  H    0.159939
     4  Br  -0.921275
 Sum of Mulliken charges =  -1.00000

 Dipole moment (field-independent basis, Debye):
    X=             -1.3744    Y=              0.6545    Z=              0.0000  Tot=              1.5223
 Quadrupole moment (field-independent basis, Debye-Ang):
   XX=            -29.3840   YY=            -40.9977   ZZ=            -31.6749
   XY=             -4.1629   XZ=              0.0000   YZ=              0.0000

  Exact polarizability:  46.103  -1.121  57.648   0.000  -0.000  45.624
 Approx polarizability:  38.798  -0.629  40.719   0.000  -0.000  37.369

                      1                      2                      3
                     A'                     A'                     A"
 Frequencies --    172.4208               376.3053               709.9900
 Red. masses --      6.8295                 1.0464                 1.0378
 Frc consts  --      0.1196                 0.0873                 0.3082
 IR Inten    --      9.9258                68.7239                30.1780

                      4                      5                      6
                     A'                     A'                     A'
 Frequencies --   1658.5795              3385.4148              3892.7493
 Red. masses --      1.0762                 1.0619                 1.0659
 Frc consts  --      1.7443                 7.1709                 9.5163
 IR Inten    --     38.2682              1161.6521                39.3828

 - Thermochemistry -
 -------------------
 Temperature   298.150 Kelvin.  Pressure   1.00000 Atm.
 Atom     1 has atomic number  8 and mass  15.99491

 Molecular mass:    96.92890 amu.
 Principal axes and moments of inertia in atomic units:
                           1         2         3
     Eigenvalues --     2.97897 544.07718 547.05615
           X           -0.01787   0.99984   0.00000
           Y            0.99984   0.01787   0.00000
           Z           -0.00000   0.00000   1.00000
 This molecule is an asymmetric top.
 Rotational symmetry number  1.
 Rotational temperatures (Kelvin)     29.07517     0.15919     0.15833
 Rotational constants (GHZ):         605.82818     3.31707     3.29901
 Zero-point vibrational energy      60982.4 (Joules/Mol)
                                   14.57514 (Kcal/Mol)
 Warning -- explicit consideration of   2 degrees of freedom as
           vibrations may cause significant error
 Vibrational temperatures:    248.08   541.42  1021.52  2386.33  4870.86
          (Kelvin)           5600.80

 Zero-point correction=                           0.023227 (Hartree/Particle)
 Thermal correction to Energy=                    0.027109
 Thermal correction to Enthalpy=                  0.028053
 Thermal correction to Gibbs Free Energy=        -0.002735
 Sum of electronic and zero-point Energies=          -2649.102958
 Sum of electronic and thermal Energies=             -2649.099076
 Sum of electronic and thermal Enthalpies=           -2649.098132
 Sum of electronic and thermal Free Energies=        -2649.128920

                     E (Thermal)             CV                S
                      KCal/Mol        Cal/Mol-Kelvin    Cal/Mol-Kelvin
 Total                   17.011             10.211             64.799
 Electronic               0.000              0.000              0.000
 Translational            0.889              2.981             39.625
 Rotational               0.889              2.981             21.410
 Vibrational             15.234              4.250              3.763
 Vibration     1          0.626              1.876              2.409
 Vibration     2          0.747              1.521              1.054

 ## DEPERTURBED TRANSITIONS MOMENTS ##

 Electric dipole : Fundamental Bands
 ------------------------------------------------------------------------

 ## AFTER VARIATIONAL CORRECTION

 Electric dipole : Fundamental Bands
 ------------------------------------------------------------------------

                       ! Non-Optimized Parameters !
 Normal termination of Gaussian 16 at Fri Oct 22 16:02:50 2021.
