 Gaussian 16, Revision B.01,
 Gaussian 16:  ES64L-G16RevB.01 20-Dec-2017

 ------------------------------------------
 #p opt=(z-matrix) mp2/aug-cc-pvtz freq=anh
 ------------------------------------------

 -----
 title
 -----
 Symbolic Z-matrix:
 Charge = -1 Multiplicity = 1

 SCF Done:  E(RHF) =  -3107.47841970     A.U. after   13 cycles
 E2 =    -0.7043467142D+00 EUMP2 =    -0.31081827664156D+04
 Optimization completed.
    -- Stationary point found.
 Normal termination of Gaussian 16 at Fri Oct 22 16:15:50 2021.

 ----------------------------------------------------------------------
 #P Geom=AllCheck Guess=TCheck SCRF=Check GenChk RMP2(FC)/Aug-CC-pVTZ F
 req
 ----------------------------------------------------------------------

 Structure from the checkpoint file:  "/gscratch/ilahie/mccoygrp/hocl/2nd_basis/br_hocl_pp_eq.chk"
 -----
 title
 -----
 Charge = -1 Multiplicity = 1

                         Standard orientation:
 ---------------------------------------------------------------------
 Center     Atomic      Atomic             Coordinates (Angstroms)
 Number     Number       Type             X           Y           Z
 ---------------------------------------------------------------------
      1          8           0        0.582692    1.631982    0.000000
      2          1           0        0.000000    0.797606    0.000000
      3         17           0        2.149395    1.013399    0.000000
      4         35           0       -1.177178   -0.888035    0.000000
 ---------------------------------------------------------------------

 SCF Done:  E(RHF) =  -3107.47841970     A.U. after    1 cycles
 E2 =    -0.7043467111D+00 EUMP2 =    -0.31081827664126D+04
 E2 =    -0.7043467111D+00 EUMP2 =    -0.31081827664126D+04
 SCF Done:  E(RHF) =  -3107.47840508     A.U. after    9 cycles
 E2 =    -0.7043584664D+00 EUMP2 =    -0.31081827635440D+04
 E2 =    -0.7043584664D+00 EUMP2 =    -0.31081827635440D+04
 SCF Done:  E(RHF) =  -3107.47843414     A.U. after    9 cycles
 E2 =    -0.7043350367D+00 EUMP2 =    -0.31081827691808D+04
 E2 =    -0.7043350367D+00 EUMP2 =    -0.31081827691808D+04
 SCF Done:  E(RHF) =  -3107.47838158     A.U. after    9 cycles
 E2 =    -0.7043880038D+00 EUMP2 =    -0.31081827695857D+04
 E2 =    -0.7043880038D+00 EUMP2 =    -0.31081827695857D+04
 SCF Done:  E(RHF) =  -3107.47845673     A.U. after    9 cycles
 E2 =    -0.7043057356D+00 EUMP2 =    -0.31081827624620D+04
 E2 =    -0.7043057356D+00 EUMP2 =    -0.31081827624620D+04
 SCF Done:  E(RHF) =  -3107.47841329     A.U. after   10 cycles
 E2 =    -0.7043490445D+00 EUMP2 =    -0.31081827623306D+04
 E2 =    -0.7043490445D+00 EUMP2 =    -0.31081827623306D+04
 SCF Done:  E(RHF) =  -3107.47841329     A.U. after   10 cycles
 E2 =    -0.7043490445D+00 EUMP2 =    -0.31081827623306D+04
 E2 =    -0.7043490445D+00 EUMP2 =    -0.31081827623306D+04
 SCF Done:  E(RHF) =  -3107.47854559     A.U. after    9 cycles
 E2 =    -0.7042147114D+00 EUMP2 =    -0.31081827603054D+04
 E2 =    -0.7042147114D+00 EUMP2 =    -0.31081827603054D+04
 SCF Done:  E(RHF) =  -3107.47828579     A.U. after    9 cycles
 E2 =    -0.7044785569D+00 EUMP2 =    -0.31081827643432D+04
 E2 =    -0.7044785569D+00 EUMP2 =    -0.31081827643432D+04
 SCF Done:  E(RHF) =  -3107.47836544     A.U. after    9 cycles
 E2 =    -0.7044188498D+00 EUMP2 =    -0.31081827842898D+04
 E2 =    -0.7044188498D+00 EUMP2 =    -0.31081827842898D+04
 SCF Done:  E(RHF) =  -3107.47843929     A.U. after    9 cycles
 E2 =    -0.7042819334D+00 EUMP2 =    -0.31081827212193D+04
 E2 =    -0.7042819334D+00 EUMP2 =    -0.31081827212193D+04
 SCF Done:  E(RHF) =  -3107.47776403     A.U. after    9 cycles
 E2 =    -0.7049485210D+00 EUMP2 =    -0.31081827125551D+04
 E2 =    -0.7049485210D+00 EUMP2 =    -0.31081827125551D+04
 SCF Done:  E(RHF) =  -3107.47896418     A.U. after    9 cycles
 E2 =    -0.7037438181D+00 EUMP2 =    -0.31081827079964D+04
 E2 =    -0.7037438181D+00 EUMP2 =    -0.31081827079964D+04

 Alpha  occ. eigenvalues -- -489.75562-104.73156 -64.89600 -58.25050 -58.25046
 Alpha  occ. eigenvalues --  -58.25045 -20.46135 -10.45104  -9.56855  -7.91821
 Alpha  occ. eigenvalues --   -7.91557  -7.91547  -7.17636  -7.17581  -7.17579
 Alpha  occ. eigenvalues --   -2.91806  -2.91780  -2.91778  -2.91718  -2.91718
 Alpha  occ. eigenvalues --   -1.22998  -0.89622  -0.73131  -0.54066  -0.44242
 Alpha  occ. eigenvalues --   -0.43426  -0.30840  -0.28095  -0.18597  -0.17609
 Alpha  occ. eigenvalues --   -0.17604
 Alpha virt. eigenvalues --    0.15606   0.18098   0.21579   0.22792   0.24125
 Alpha virt. eigenvalues --    0.24636   0.25013   0.28658   0.30341   0.31767
 Alpha virt. eigenvalues --    0.32347   0.32492   0.35878   0.43568   0.43704

 Mulliken charges:
               1
     1  O   -0.489030
     2  H    0.290324
     3  Cl   0.049723
     4  Br  -0.851018
 Sum of Mulliken charges =  -1.00000

 Dipole moment (field-independent basis, Debye):
    X=              2.7065    Y=              1.1872    Z=              0.0000  Tot=              2.9555
 Quadrupole moment (field-independent basis, Debye-Ang):
   XX=            -50.7181   YY=            -50.4085   ZZ=            -43.1754
   XY=             -7.3515   XZ=              0.0000   YZ=              0.0000

  Exact polarizability:  71.869   7.880  61.652  -0.000   0.000  52.531
 Approx polarizability:  56.708  -0.616  50.864   0.000   0.000  46.713

                      1                      2                      3
                     A'                     A'                     A"
 Frequencies --     85.5129               239.6218               777.0579
 Red. masses --     23.6382                 8.2289                 1.0358
 Frc consts  --      0.1018                 0.2784                 0.3685
 IR Inten    --      2.9315                20.6912                20.6720

                      4                      5                      6
                     A'                     A'                     A'
 Frequencies --    777.7538              1421.6385              2881.6070
 Red. masses --     16.7200                 1.0559                 1.0736
 Frc consts  --      5.9590                 1.2573                 5.2524
 IR Inten    --      8.7813                 8.7865              2518.7030

 - Thermochemistry -
 -------------------
 Temperature   298.150 Kelvin.  Pressure   1.00000 Atm.
 Atom     1 has atomic number  8 and mass  15.99491

 Molecular mass:   130.88993 amu.
 Principal axes and moments of inertia in atomic units:
                           1         2         3
     Eigenvalues --    79.755421408.430611488.18602
           X            0.82538  -0.56458   0.00000
           Y            0.56458   0.82538   0.00000
           Z            0.00000   0.00000   1.00000
 This molecule is an asymmetric top.
 Rotational symmetry number  1.
 Rotational temperatures (Kelvin)      1.08599     0.06150     0.05820
 Rotational constants (GHZ):          22.62845     1.28138     1.21271
 Zero-point vibrational energy      36983.7 (Joules/Mol)
                                    8.83932 (Kcal/Mol)
 Warning -- explicit consideration of   2 degrees of freedom as
           vibrations may cause significant error
 Vibrational temperatures:    123.03   344.76  1118.01  1119.01  2045.42
          (Kelvin)           4145.99

 Zero-point correction=                           0.014086 (Hartree/Particle)
 Thermal correction to Energy=                    0.018360
 Thermal correction to Enthalpy=                  0.019304
 Thermal correction to Gibbs Free Energy=        -0.015462
 Sum of electronic and zero-point Energies=          -3108.168680
 Sum of electronic and thermal Energies=             -3108.164406
 Sum of electronic and thermal Enthalpies=           -3108.163462
 Sum of electronic and thermal Free Energies=        -3108.198229

                     E (Thermal)             CV                S
                      KCal/Mol        Cal/Mol-Kelvin    Cal/Mol-Kelvin
 Total                   11.521             11.177             73.172
 Electronic               0.000              0.000              0.000
 Translational            0.889              2.981             40.520
 Rotational               0.889              2.981             26.616
 Vibrational              9.744              5.215              6.035
 Vibration     1          0.601              1.959              3.760
 Vibration     2          0.657              1.780              1.806

 ## DEPERTURBED TRANSITIONS MOMENTS ##

 Electric dipole : Fundamental Bands
 ------------------------------------------------------------------------

 ## AFTER VARIATIONAL CORRECTION

 Electric dipole : Fundamental Bands
 ------------------------------------------------------------------------

 Optimization completed.
    -- Stationary point found.
 Normal termination of Gaussian 16 at Fri Oct 22 17:18:15 2021.
