 Gaussian 16, Revision B.01,
 Gaussian 16:  ES64L-G16RevB.01 20-Dec-2017

 ------------------------------------------------
 #p opt=(z-matrix,tight) mp2/aug-cc-pvtz freq=anh
 ------------------------------------------------

 -----
 title
 -----
 Symbolic Z-matrix:
 Charge = -1 Multiplicity = 1

 SCF Done:  E(RHF) =  -994.523903900     A.U. after   13 cycles
 E2 =    -0.6682219352D+00 EUMP2 =    -0.99519212583539D+03
 SCF Done:  E(RHF) =  -994.523903992     A.U. after    5 cycles
 E2 =    -0.6682218455D+00 EUMP2 =    -0.99519212583724D+03
 Optimization completed.
    -- Stationary point found.
 Normal termination of Gaussian 16 at Fri Oct 22 15:44:50 2021.

 ----------------------------------------------------------------------
 #P Geom=AllCheck Guess=TCheck SCRF=Check GenChk RMP2(FC)/Aug-CC-pVTZ F
 req
 ----------------------------------------------------------------------

 Structure from the checkpoint file:  "/gscratch/ilahie/mccoygrp/hocl/2nd_basis/cl_hocl_pp_eq.chk"
 -----
 title
 -----
 Charge = -1 Multiplicity = 1

                         Standard orientation:
 ---------------------------------------------------------------------
 Center     Atomic      Atomic             Coordinates (Angstroms)
 Number     Number       Type             X           Y           Z
 ---------------------------------------------------------------------
      1          8           0       -1.028205    0.627941   -0.000000
      2          1           0        0.000000    0.646795    0.000000
      3         17           0       -1.392976   -1.014757   -0.000000
      4         17           0        1.876838    0.681209    0.000000
 ---------------------------------------------------------------------

 SCF Done:  E(RHF) =  -994.523903992     A.U. after    1 cycles
 E2 =    -0.6682218442D+00 EUMP2 =    -0.99519212583600D+03
 E2 =    -0.6682218443D+00 EUMP2 =    -0.99519212583600D+03
 SCF Done:  E(RHF) =  -994.523918460     A.U. after    9 cycles
 E2 =    -0.6682110609D+00 EUMP2 =    -0.99519212952113D+03
 E2 =    -0.6682110609D+00 EUMP2 =    -0.99519212952113D+03
 SCF Done:  E(RHF) =  -994.523889272     A.U. after    9 cycles
 E2 =    -0.6682327301D+00 EUMP2 =    -0.99519212200180D+03
 E2 =    -0.6682327301D+00 EUMP2 =    -0.99519212200180D+03
 SCF Done:  E(RHF) =  -994.523865338     A.U. after    9 cycles
 E2 =    -0.6682635222D+00 EUMP2 =    -0.99519212885988D+03
 E2 =    -0.6682635222D+00 EUMP2 =    -0.99519212885988D+03
 SCF Done:  E(RHF) =  -994.523941269     A.U. after    9 cycles
 E2 =    -0.6681804598D+00 EUMP2 =    -0.99519212172864D+03
 E2 =    -0.6681804598D+00 EUMP2 =    -0.99519212172864D+03
 SCF Done:  E(RHF) =  -994.524024465     A.U. after    9 cycles
 E2 =    -0.6680950823D+00 EUMP2 =    -0.99519211954698D+03
 E2 =    -0.6680950823D+00 EUMP2 =    -0.99519211954698D+03
 SCF Done:  E(RHF) =  -994.523775538     A.U. after    9 cycles
 E2 =    -0.6683483487D+00 EUMP2 =    -0.99519212388717D+03
 E2 =    -0.6683483487D+00 EUMP2 =    -0.99519212388717D+03
 SCF Done:  E(RHF) =  -994.523896731     A.U. after   10 cycles
 E2 =    -0.6682243092D+00 EUMP2 =    -0.99519212103977D+03
 E2 =    -0.6682243092D+00 EUMP2 =    -0.99519212103977D+03
 SCF Done:  E(RHF) =  -994.523896731     A.U. after   10 cycles
 E2 =    -0.6682243092D+00 EUMP2 =    -0.99519212103976D+03
 E2 =    -0.6682243092D+00 EUMP2 =    -0.99519212103976D+03
 SCF Done:  E(RHF) =  -994.523858774     A.U. after    9 cycles
 E2 =    -0.6682895632D+00 EUMP2 =    -0.99519214833677D+03
 E2 =    -0.6682895632D+00 EUMP2 =    -0.99519214833677D+03
 SCF Done:  E(RHF) =  -994.523913489     A.U. after    9 cycles
 E2 =    -0.6681615316D+00 EUMP2 =    -0.99519207502040D+03
 E2 =    -0.6681615316D+00 EUMP2 =    -0.99519207502040D+03
 SCF Done:  E(RHF) =  -994.523300499     A.U. after    9 cycles
 E2 =    -0.6687776238D+00 EUMP2 =    -0.99519207812280D+03
 E2 =    -0.6687776238D+00 EUMP2 =    -0.99519207812280D+03
 SCF Done:  E(RHF) =  -994.524412220     A.U. after    9 cycles
 E2 =    -0.6676622364D+00 EUMP2 =    -0.99519207445667D+03
 E2 =    -0.6676622364D+00 EUMP2 =    -0.99519207445667D+03

 Alpha  occ. eigenvalues -- -104.72314-104.54878 -20.44919 -10.44266 -10.27369
 Alpha  occ. eigenvalues --   -7.90983  -7.90724  -7.90715  -7.73986  -7.73968
 Alpha  occ. eigenvalues --   -7.73968  -1.21783  -0.88708  -0.78876  -0.52984
 Alpha  occ. eigenvalues --   -0.43247  -0.42446  -0.30084  -0.27178  -0.20501
 Alpha  occ. eigenvalues --   -0.19676  -0.19673
 Alpha virt. eigenvalues --    0.16111   0.18636   0.22580   0.23531   0.25826
 Alpha virt. eigenvalues --    0.27289   0.27510   0.29559   0.31051   0.32691
 Alpha virt. eigenvalues --    0.33716   0.35014   0.38628   0.45226   0.46264

 Mulliken charges:
               1
     1  O   -0.494984
     2  H    0.290652
     3  Cl   0.039346
     4  Cl  -0.835014
 Sum of Mulliken charges =  -1.00000

 Dipole moment (field-independent basis, Debye):
    X=             -4.6715    Y=             -2.4257    Z=              0.0000  Tot=              5.2637
 Quadrupole moment (field-independent basis, Debye-Ang):
   XX=            -53.6111   YY=            -38.2173   ZZ=            -36.6631
   XY=             -4.5894   XZ=              0.0000   YZ=              0.0000

  Exact polarizability:  60.189   7.056  52.192  -0.000  -0.000  43.244
 Approx polarizability:  42.802   2.488  46.533   0.000   0.000  37.771

                      1                      2                      3
                     A'                     A'                     A'
 Frequencies --    104.9066               283.1025               780.7216
 Red. masses --     19.4462                 9.2087                16.5267
 Frc consts  --      0.1261                 0.4348                 5.9351
 IR Inten    --      8.3392                52.6430                 9.0384

                      4                      5                      6
                     A"                     A'                     A'
 Frequencies --    842.3637              1447.4407              2707.1441
 Red. masses --      1.0361                 1.0532                 1.0768
 Frc consts  --      0.4332                 1.3001                 4.6493
 IR Inten    --     27.3456                13.4474              2737.5060

 - Thermochemistry -
 -------------------
 Temperature   298.150 Kelvin.  Pressure   1.00000 Atm.
 Atom     1 has atomic number  8 and mass  15.99491

 Molecular mass:    86.94045 amu.
 Principal axes and moments of inertia in atomic units:
                           1         2         3
     Eigenvalues --    76.10295 876.98659 953.08954
           X            0.91223  -0.40969   0.00000
           Y            0.40969   0.91223   0.00000
           Z           -0.00000   0.00000   1.00000
 This molecule is an asymmetric top.
 Rotational symmetry number  1.
 Rotational temperatures (Kelvin)      1.13812     0.09876     0.09088
 Rotational constants (GHZ):          23.71447     2.05789     1.89357
 Zero-point vibrational energy      36879.0 (Joules/Mol)
                                    8.81428 (Kcal/Mol)
 Warning -- explicit consideration of   2 degrees of freedom as
           vibrations may cause significant error
 Vibrational temperatures:    150.94   407.32  1123.28  1211.97  2082.54
          (Kelvin)           3894.98

 Zero-point correction=                           0.014046 (Hartree/Particle)
 Thermal correction to Energy=                    0.018203
 Thermal correction to Enthalpy=                  0.019147
 Thermal correction to Gibbs Free Energy=        -0.014229
 Sum of electronic and zero-point Energies=           -995.178079
 Sum of electronic and thermal Energies=              -995.173923
 Sum of electronic and thermal Enthalpies=            -995.172978
 Sum of electronic and thermal Free Energies=         -995.206355

                     E (Thermal)             CV                S
                      KCal/Mol        Cal/Mol-Kelvin    Cal/Mol-Kelvin
 Total                   11.423             10.969             70.247
 Electronic               0.000              0.000              0.000
 Translational            0.889              2.981             39.301
 Rotational               0.889              2.981             25.656
 Vibrational              9.645              5.007              5.290
 Vibration     1          0.605              1.945              3.361
 Vibration     2          0.682              1.705              1.515

 ## DEPERTURBED TRANSITIONS MOMENTS ##

 Electric dipole : Fundamental Bands
 ------------------------------------------------------------------------

 ## AFTER VARIATIONAL CORRECTION

 Electric dipole : Fundamental Bands
 ------------------------------------------------------------------------

 Optimization completed.
    -- Stationary point found.
 Normal termination of Gaussian 16 at Fri Oct 22 16:16:59 2021.
