 Gaussian 16, Revision B.01,
 Gaussian 16:  ES64L-G16RevB.01 20-Dec-2017

 ------------------------------------------------
 #p opt=(z-matrix,tight) mp2/aug-cc-pvtz freq=anh
 ------------------------------------------------

 -----
 title
 -----
 Symbolic Z-matrix:
 Charge = -1 Multiplicity = 1

 SCF Done:  E(RHF) =  -535.650415392     A.U. after   11 cycles
 E2 =    -0.4835776860D+00 EUMP2 =    -0.53613399307832D+03
 SCF Done:  E(RHF) =  -535.650416603     A.U. after    3 cycles
 E2 =    -0.4835764908D+00 EUMP2 =    -0.53613399309378D+03
 Optimization completed.
    -- Stationary point found.
 Normal termination of Gaussian 16 at Thu Oct 28 08:13:35 2021.

 ----------------------------------------------------------------------
 #P Geom=AllCheck Guess=TCheck SCRF=Check GenChk RMP2(FC)/Aug-CC-pVTZ F
 req
 ----------------------------------------------------------------------

 Structure from the checkpoint file:  "/gscratch/ilahie/mccoygrp/hocl/2nd_basis/cl_hoh_tz_eq.chk"
 -----
 title
 -----
 Charge = -1 Multiplicity = 1

                         Standard orientation:
 ---------------------------------------------------------------------
 Center     Atomic      Atomic             Coordinates (Angstroms)
 Number     Number       Type             X           Y           Z
 ---------------------------------------------------------------------
      1          8           0        0.034834    1.974319    0.000000
      2          1           0        0.034834    0.981626    0.000000
      3          1           0       -0.905678    2.169744    0.000000
      4         17           0        0.034834   -1.114466   -0.000000
 ---------------------------------------------------------------------

 SCF Done:  E(RHF) =  -535.650416603     A.U. after    1 cycles
 E2 =    -0.4835764848D+00 EUMP2 =    -0.53613399308780D+03
 E2 =    -0.4835764848D+00 EUMP2 =    -0.53613399308780D+03
 SCF Done:  E(RHF) =  -535.650383301     A.U. after    7 cycles
 E2 =    -0.4836101805D+00 EUMP2 =    -0.53613399348168D+03
 E2 =    -0.4836101805D+00 EUMP2 =    -0.53613399348168D+03
 SCF Done:  E(RHF) =  -535.650449187     A.U. after    7 cycles
 E2 =    -0.4835429235D+00 EUMP2 =    -0.53613399211059D+03
 E2 =    -0.4835429235D+00 EUMP2 =    -0.53613399211059D+03
 SCF Done:  E(RHF) =  -535.650457228     A.U. after    8 cycles
 E2 =    -0.4835740164D+00 EUMP2 =    -0.53613403124434D+03
 E2 =    -0.4835740164D+00 EUMP2 =    -0.53613403124434D+03
 SCF Done:  E(RHF) =  -535.650369267     A.U. after    8 cycles
 E2 =    -0.4835834096D+00 EUMP2 =    -0.53613395267672D+03
 E2 =    -0.4835834096D+00 EUMP2 =    -0.53613395267672D+03
 SCF Done:  E(RHF) =  -535.650410357     A.U. after    8 cycles
 E2 =    -0.4835788494D+00 EUMP2 =    -0.53613398920671D+03
 E2 =    -0.4835788494D+00 EUMP2 =    -0.53613398920671D+03
 SCF Done:  E(RHF) =  -535.650410357     A.U. after    8 cycles
 E2 =    -0.4835788494D+00 EUMP2 =    -0.53613398920671D+03
 E2 =    -0.4835788494D+00 EUMP2 =    -0.53613398920671D+03
 SCF Done:  E(RHF) =  -535.650221765     A.U. after    7 cycles
 E2 =    -0.4837023812D+00 EUMP2 =    -0.53613392414576D+03
 E2 =    -0.4837023812D+00 EUMP2 =    -0.53613392414576D+03
 SCF Done:  E(RHF) =  -535.650565320     A.U. after    7 cycles
 E2 =    -0.4834592207D+00 EUMP2 =    -0.53613402454061D+03
 E2 =    -0.4834592207D+00 EUMP2 =    -0.53613402454061D+03
 SCF Done:  E(RHF) =  -535.649795861     A.U. after    8 cycles
 E2 =    -0.4841285449D+00 EUMP2 =    -0.53613392440636D+03
 E2 =    -0.4841285449D+00 EUMP2 =    -0.53613392440636D+03
 SCF Done:  E(RHF) =  -535.650887796     A.U. after    8 cycles
 E2 =    -0.4830269929D+00 EUMP2 =    -0.53613391478869D+03
 E2 =    -0.4830269929D+00 EUMP2 =    -0.53613391478869D+03
 SCF Done:  E(RHF) =  -535.649939297     A.U. after    8 cycles
 E2 =    -0.4839533193D+00 EUMP2 =    -0.53613389261588D+03
 E2 =    -0.4839533193D+00 EUMP2 =    -0.53613389261588D+03
 SCF Done:  E(RHF) =  -535.650688933     A.U. after    8 cycles
 E2 =    -0.4831996220D+00 EUMP2 =    -0.53613388855475D+03
 E2 =    -0.4831996220D+00 EUMP2 =    -0.53613388855475D+03

 Alpha  occ. eigenvalues -- -104.53013 -20.37621 -10.25460  -7.72070  -7.72063
 Alpha  occ. eigenvalues --   -7.72063  -1.16029  -0.76544  -0.51788  -0.40619
 Alpha  occ. eigenvalues --   -0.32265  -0.18230  -0.17762  -0.17716
 Alpha virt. eigenvalues --    0.13877   0.18210   0.25650   0.26701   0.27573
 Alpha virt. eigenvalues --    0.28784   0.30509   0.31073   0.35267   0.39679
 Alpha virt. eigenvalues --    0.41329   0.41946   0.43475   0.49909   0.55356

 Mulliken charges:
               1
     1  O   -0.541102
     2  H    0.294729
     3  H    0.157960
     4  Cl  -0.911587
 Sum of Mulliken charges =  -1.00000

 Dipole moment (field-independent basis, Debye):
    X=             -1.4520    Y=              2.5290    Z=              0.0000  Tot=              2.9162
 Quadrupole moment (field-independent basis, Debye-Ang):
   XX=            -22.8547   YY=            -35.4384   ZZ=            -25.1113
   XY=             -3.2913   XZ=              0.0000   YZ=             -0.0000

  Exact polarizability:  36.008  -0.913  46.482  -0.000  -0.000  35.687
 Approx polarizability:  29.422  -0.524  31.336  -0.000  -0.000  28.066

                      1                      2                      3
                     A'                     A'                     A"
 Frequencies --    205.3293               406.9732               757.0075
 Red. masses --      7.8603                 1.0486                 1.0381
 Frc consts  --      0.1952                 0.1023                 0.3505
 IR Inten    --     28.3533                67.2565                37.0021

                      4                      5                      6
                     A'                     A'                     A'
 Frequencies --   1665.2622              3297.0479              3893.9711
 Red. masses --      1.0749                 1.0634                 1.0654
 Frc consts  --      1.7563                 6.8110                 9.5181
 IR Inten    --     38.4500              1292.2423                30.9774

 - Thermochemistry -
 -------------------
 Temperature   298.150 Kelvin.  Pressure   1.00000 Atm.
 Atom     1 has atomic number  8 and mass  15.99491

 Molecular mass:    52.97942 amu.
 Principal axes and moments of inertia in atomic units:
                           1         2         3
     Eigenvalues --     2.97585 397.10595 400.08180
           X           -0.01932   0.99981   0.00000
           Y            0.99981   0.01932   0.00000
           Z            0.00000   0.00000   1.00000
 This molecule is an asymmetric top.
 Rotational symmetry number  1.
 Rotational temperatures (Kelvin)     29.10563     0.21811     0.21649
 Rotational constants (GHZ):         606.46286     4.54473     4.51093
 Zero-point vibrational energy      61162.6 (Joules/Mol)
                                   14.61822 (Kcal/Mol)
 Warning -- explicit consideration of   2 degrees of freedom as
           vibrations may cause significant error
 Vibrational temperatures:    295.42   585.54  1089.16  2395.94  4743.72
          (Kelvin)           5602.56

 Zero-point correction=                           0.023296 (Hartree/Particle)
 Thermal correction to Energy=                    0.027077
 Thermal correction to Enthalpy=                  0.028022
 Thermal correction to Gibbs Free Energy=        -0.001381
 Sum of electronic and zero-point Energies=           -536.110697
 Sum of electronic and thermal Energies=              -536.106916
 Sum of electronic and thermal Enthalpies=            -536.105971
 Sum of electronic and thermal Free Energies=         -536.135374

                     E (Thermal)             CV                S
                      KCal/Mol        Cal/Mol-Kelvin    Cal/Mol-Kelvin
 Total                   16.991             10.015             61.883
 Electronic               0.000              0.000              0.000
 Translational            0.889              2.981             37.824
 Rotational               0.889              2.981             20.786
 Vibrational             15.214              4.053              3.273
 Vibration     1          0.640              1.832              2.085
 Vibration     2          0.772              1.455              0.937

 ## DEPERTURBED TRANSITIONS MOMENTS ##

 Electric dipole : Fundamental Bands
 ------------------------------------------------------------------------

 ## AFTER VARIATIONAL CORRECTION

 Electric dipole : Fundamental Bands
 ------------------------------------------------------------------------

 Optimization completed.
    -- Stationary point found.
 Normal termination of Gaussian 16 at Thu Oct 28 08:27:32 2021.
