 Gaussian 16, Revision B.01,
 Gaussian 16:  ES64L-G16RevB.01 20-Dec-2017

 ----------------------------------------------------
 #p opt=(z-matrix,tight) mp2/gen Pseudo=read freq=anh
 ----------------------------------------------------

 -----
 title
 -----
 Symbolic Z-matrix:
 Charge = -1 Multiplicity = 1

 SCF Done:  E(RHF) =  -829.686504389     A.U. after   13 cycles
 E2 =    -0.6816869299D+00 EUMP2 =    -0.83036819131937D+03
 SCF Done:  E(RHF) =  -829.686080355     A.U. after   10 cycles
 E2 =    -0.6823452741D+00 EUMP2 =    -0.83036842562935D+03
 SCF Done:  E(RHF) =  -829.685729380     A.U. after    9 cycles
 E2 =    -0.6827154822D+00 EUMP2 =    -0.83036844486207D+03
 SCF Done:  E(RHF) =  -829.685556612     A.U. after    9 cycles
 E2 =    -0.6828894855D+00 EUMP2 =    -0.83036844609793D+03
 SCF Done:  E(RHF) =  -829.685589156     A.U. after    7 cycles
 E2 =    -0.6828570583D+00 EUMP2 =    -0.83036844621417D+03
 Optimization completed.
    -- Stationary point found.
 Normal termination of Gaussian 16 at Fri Oct 22 15:26:19 2021.

 --------------------------------------------------------------------
 #P Geom=AllCheck Guess=TCheck SCRF=Check GenChk RMP2(FC)/ChkBas Freq
 --------------------------------------------------------------------

 Structure from the checkpoint file:  "/gscratch/ilahie/mccoygrp/hocl/2nd_basis/i_hocl_pp_eq.chk"
 -----
 title
 -----
 Charge = -1 Multiplicity = 1

                         Standard orientation:
 ---------------------------------------------------------------------
 Center     Atomic      Atomic             Coordinates (Angstroms)
 Number     Number       Type             X           Y           Z
 ---------------------------------------------------------------------
      1          8           0       -0.297425   -2.160479    0.000000
      2          1           0        0.000000   -1.197344    0.000000
      3         17           0       -1.980027   -2.045030    0.000000
      4         53           0        0.679997    1.004654   -0.000000
 ---------------------------------------------------------------------

 SCF Done:  E(RHF) =  -829.685589156     A.U. after    1 cycles
 E2 =    -0.6828570597D+00 EUMP2 =    -0.83036844621552D+03
 E2 =    -0.6828570597D+00 EUMP2 =    -0.83036844621552D+03
 SCF Done:  E(RHF) =  -829.685574896     A.U. after    9 cycles
 E2 =    -0.6828690245D+00 EUMP2 =    -0.83036844392066D+03
 E2 =    -0.6828690245D+00 EUMP2 =    -0.83036844392066D+03
 SCF Done:  E(RHF) =  -829.685603267     A.U. after    9 cycles
 E2 =    -0.6828451767D+00 EUMP2 =    -0.83036844844321D+03
 E2 =    -0.6828451767D+00 EUMP2 =    -0.83036844844321D+03
 SCF Done:  E(RHF) =  -829.685552690     A.U. after    9 cycles
 E2 =    -0.6828965228D+00 EUMP2 =    -0.83036844921270D+03
 E2 =    -0.6828965228D+00 EUMP2 =    -0.83036844921270D+03
 SCF Done:  E(RHF) =  -829.685624720     A.U. after    9 cycles
 E2 =    -0.6828179356D+00 EUMP2 =    -0.83036844265528D+03
 E2 =    -0.6828179356D+00 EUMP2 =    -0.83036844265528D+03
 SCF Done:  E(RHF) =  -829.685583540     A.U. after   10 cycles
 E2 =    -0.6828594306D+00 EUMP2 =    -0.83036844297028D+03
 E2 =    -0.6828594306D+00 EUMP2 =    -0.83036844297028D+03
 SCF Done:  E(RHF) =  -829.685583540     A.U. after   10 cycles
 E2 =    -0.6828594306D+00 EUMP2 =    -0.83036844297028D+03
 E2 =    -0.6828594306D+00 EUMP2 =    -0.83036844297028D+03
 SCF Done:  E(RHF) =  -829.685720113     A.U. after    9 cycles
 E2 =    -0.6827201315D+00 EUMP2 =    -0.83036844024475D+03
 E2 =    -0.6827201315D+00 EUMP2 =    -0.83036844024475D+03
 SCF Done:  E(RHF) =  -829.685450151     A.U. after    9 cycles
 E2 =    -0.6829939477D+00 EUMP2 =    -0.83036844409855D+03
 E2 =    -0.6829939477D+00 EUMP2 =    -0.83036844409855D+03
 SCF Done:  E(RHF) =  -829.685527166     A.U. after    9 cycles
 E2 =    -0.6829322481D+00 EUMP2 =    -0.83036845941367D+03
 E2 =    -0.6829322481D+00 EUMP2 =    -0.83036845941367D+03
 SCF Done:  E(RHF) =  -829.685617498     A.U. after    9 cycles
 E2 =    -0.6827894285D+00 EUMP2 =    -0.83036840692683D+03
 E2 =    -0.6827894285D+00 EUMP2 =    -0.83036840692683D+03
 SCF Done:  E(RHF) =  -829.684896481     A.U. after    9 cycles
 E2 =    -0.6834894010D+00 EUMP2 =    -0.83036838588226D+03
 E2 =    -0.6834894010D+00 EUMP2 =    -0.83036838588226D+03
 SCF Done:  E(RHF) =  -829.686155365     A.U. after    9 cycles
 E2 =    -0.6822261583D+00 EUMP2 =    -0.83036838152340D+03
 E2 =    -0.6822261583D+00 EUMP2 =    -0.83036838152340D+03

 Alpha  occ. eigenvalues -- -104.74197 -20.47588 -10.46141  -7.92858  -7.92588
 Alpha  occ. eigenvalues --   -7.92577  -7.47819  -5.30402  -5.30338  -5.30335
 Alpha  occ. eigenvalues --   -2.03162  -2.03120  -2.03118  -2.03050  -2.03050
 Alpha  occ. eigenvalues --   -1.24417  -0.90761  -0.64458  -0.55200  -0.45445
 Alpha  occ. eigenvalues --   -0.44608  -0.31846  -0.29217  -0.16346  -0.15326
 Alpha  occ. eigenvalues --   -0.15317
 Alpha virt. eigenvalues --    0.15236   0.17637   0.21542   0.22628   0.24014
 Alpha virt. eigenvalues --    0.24971   0.25247   0.27557   0.29600   0.30595
 Alpha virt. eigenvalues --    0.30719   0.31248   0.34713   0.37409   0.37892

 Mulliken charges:
               1
     1  O   -0.483644
     2  H    0.269288
     3  Cl   0.055527
     4  I   -0.841171
 Sum of Mulliken charges =  -1.00000

 Dipole moment (field-independent basis, Debye):
    X=             -1.5603    Y=             -1.0868    Z=             -0.0000  Tot=              1.9015
 Quadrupole moment (field-independent basis, Debye-Ang):
   XX=            -55.7578   YY=            -64.9965   ZZ=            -53.2881
   XY=             -5.6314   XZ=             -0.0000   YZ=             -0.0000

  Exact polarizability:  84.214  11.315  88.036  -0.000   0.000  69.810
 Approx polarizability:  73.343   1.314  68.539   0.000   0.000  63.580

                      1                      2                      3
                     A'                     A'                     A"
 Frequencies --     72.2082               204.7175               693.0293
 Red. masses --     24.0617                 7.7749                 1.0373
 Frc consts  --      0.0739                 0.1920                 0.2935
 IR Inten    --      1.3103                10.5456                14.8959

                      4                      5                      6
                     A'                     A'                     A'
 Frequencies --    773.7489              1389.5094              3040.9546
 Red. masses --     16.9060                 1.0592                 1.0718
 Frc consts  --      5.9634                 1.2049                 5.8397
 IR Inten    --      8.5952                 5.6312              2296.6482

 - Thermochemistry -
 -------------------
 Temperature   298.150 Kelvin.  Pressure   1.00000 Atm.
 Atom     1 has atomic number  8 and mass  15.99491

 Molecular mass:   178.87199 amu.
 Principal axes and moments of inertia in atomic units:
                           1         2         3
     Eigenvalues --    82.914601861.502031944.41663
           X            0.58958   0.80771   0.00000
           Y            0.80771  -0.58958   0.00000
           Z           -0.00000  -0.00000   1.00000
 This molecule is an asymmetric top.
 Rotational symmetry number  1.
 Rotational temperatures (Kelvin)      1.04462     0.04653     0.04454
 Rotational constants (GHZ):          21.76627     0.96951     0.92817
 Zero-point vibrational energy      36929.7 (Joules/Mol)
                                    8.82642 (Kcal/Mol)
 Warning -- explicit consideration of   2 degrees of freedom as
           vibrations may cause significant error
 Vibrational temperatures:    103.89   294.54   997.11  1113.25  1999.19
          (Kelvin)           4375.26

 Zero-point correction=                           0.014066 (Hartree/Particle)
 Thermal correction to Energy=                    0.018451
 Thermal correction to Enthalpy=                  0.019395
 Thermal correction to Gibbs Free Energy=        -0.016428
 Sum of electronic and zero-point Energies=           -830.354380
 Sum of electronic and thermal Energies=              -830.349996
 Sum of electronic and thermal Enthalpies=            -830.349052
 Sum of electronic and thermal Free Energies=         -830.384874

                     E (Thermal)             CV                S
                      KCal/Mol        Cal/Mol-Kelvin    Cal/Mol-Kelvin
 Total                   11.578             11.409             75.395
 Electronic               0.000              0.000              0.000
 Translational            0.889              2.981             41.451
 Rotational               0.889              2.981             27.198
 Vibrational              9.800              5.448              6.746
 Vibration     1          0.598              1.967              4.092
 Vibration     2          0.640              1.833              2.090

 ## DEPERTURBED TRANSITIONS MOMENTS ##

 Electric dipole : Fundamental Bands
 ------------------------------------------------------------------------

 ## AFTER VARIATIONAL CORRECTION

 Electric dipole : Fundamental Bands
 ------------------------------------------------------------------------

                       ! Non-Optimized Parameters !
 Normal termination of Gaussian 16 at Fri Oct 22 16:22:40 2021.
