 Gaussian 16, Revision B.01,
 Gaussian 16:  ES64L-G16RevB.01 20-Dec-2017

 ----------------------------------------------------
 #p opt=(z-matrix,tight) mp2/gen Pseudo=read freq=anh
 ----------------------------------------------------

 -----
 title
 -----
 Symbolic Z-matrix:
 Charge = -1 Multiplicity = 1

 SCF Done:  E(RHF) =  -370.643329508     A.U. after   14 cycles
 E2 =    -0.5290307786D+00 EUMP2 =    -0.37117236028617D+03
 SCF Done:  E(RHF) =  -370.681601757     A.U. after   12 cycles
 E2 =    -0.5228527875D+00 EUMP2 =    -0.37120445454406D+03
 SCF Done:  E(RHF) =  -370.752968016     A.U. after   12 cycles
 E2 =    -0.5123985963D+00 EUMP2 =    -0.37126536661231D+03
 SCF Done:  E(RHF) =  -370.789653773     A.U. after   12 cycles
 E2 =    -0.4936926030D+00 EUMP2 =    -0.37128334637625D+03
 SCF Done:  E(RHF) =  -370.612071697     A.U. after   12 cycles
 E2 =    -0.4874697910D+00 EUMP2 =    -0.37109954148785D+03
 SCF Done:  E(RHF) =  -370.802012202     A.U. after   12 cycles
 E2 =    -0.4933717051D+00 EUMP2 =    -0.37129538390656D+03
 SCF Done:  E(RHF) =  -370.812301528     A.U. after   10 cycles
 E2 =    -0.4953646843D+00 EUMP2 =    -0.37130766621217D+03
 SCF Done:  E(RHF) =  -370.786710231     A.U. after   12 cycles
 E2 =    -0.5069892555D+00 EUMP2 =    -0.37129369948646D+03
 SCF Done:  E(RHF) =  -370.816077631     A.U. after   10 cycles
 E2 =    -0.4944319379D+00 EUMP2 =    -0.37131050956909D+03
 SCF Done:  E(RHF) =  -370.818734672     A.U. after   10 cycles
 E2 =    -0.4938123608D+00 EUMP2 =    -0.37131254703333D+03
 E2 =    -0.4943636446D+00 EUMP2 =    -0.37131294327647D+03
 E2 =    -0.4925980743D+00 EUMP2 =    -0.37131125601427D+03
 E2 =    -0.4960090828D+00 EUMP2 =    -0.37131363227607D+03
 E2 =    -0.4947772888D+00 EUMP2 =    -0.37131204734951D+03
 E2 =    -0.4966960362D+00 EUMP2 =    -0.37131374707156D+03
 E2 =    -0.4969158935D+00 EUMP2 =    -0.37131377352433D+03
 E2 =    -0.4970882976D+00 EUMP2 =    -0.37131377902612D+03
 E2 =    -0.4970549668D+00 EUMP2 =    -0.37131377962290D+03
 E2 =    -0.4970149950D+00 EUMP2 =    -0.37131377999934D+03
 E2 =    -0.4970206297D+00 EUMP2 =    -0.37131378000725D+03
 Optimization completed.
    -- Stationary point found.
 Normal termination of Gaussian 16 at Fri Oct 22 15:29:22 2021.

 --------------------------------------------------------------------
 #P Geom=AllCheck Guess=TCheck SCRF=Check GenChk RMP2(FC)/ChkBas Freq
 --------------------------------------------------------------------

 Structure from the checkpoint file:  "/gscratch/ilahie/mccoygrp/hocl/2nd_basis/i_hoh_pp_eq.chk"
 -----
 title
 -----
 Charge = -1 Multiplicity = 1

                         Standard orientation:
 ---------------------------------------------------------------------
 Center     Atomic      Atomic             Coordinates (Angstroms)
 Number     Number       Type             X           Y           Z
 ---------------------------------------------------------------------
      1          8           0        0.014933    2.963913   -0.000000
      2          1           0        0.014933    1.981449   -0.000000
      3          1           0       -0.925820    3.160425   -0.000000
      4         53           0        0.014933   -0.544400    0.000000
 ---------------------------------------------------------------------

 SCF Done:  E(RHF) =  -370.816800033     A.U. after    8 cycles
 E2 =    -0.4970169096D+00 EUMP2 =    -0.37131381694254D+03
 E2 =    -0.4970169096D+00 EUMP2 =    -0.37131381694254D+03
 SCF Done:  E(RHF) =  -370.816712774     A.U. after    8 cycles
 E2 =    -0.4970287199D+00 EUMP2 =    -0.37131374149404D+03
 E2 =    -0.4970287199D+00 EUMP2 =    -0.37131374149404D+03
 SCF Done:  E(RHF) =  -370.816754484     A.U. after    8 cycles
 E2 =    -0.4970227979D+00 EUMP2 =    -0.37131377728178D+03
 E2 =    -0.4970227979D+00 EUMP2 =    -0.37131377728178D+03
 SCF Done:  E(RHF) =  -370.816754484     A.U. after    8 cycles
 E2 =    -0.4970227979D+00 EUMP2 =    -0.37131377728178D+03
 E2 =    -0.4970227979D+00 EUMP2 =    -0.37131377728178D+03
 SCF Done:  E(RHF) =  -370.816566238     A.U. after    8 cycles
 E2 =    -0.4971505746D+00 EUMP2 =    -0.37131371681284D+03
 E2 =    -0.4971505746D+00 EUMP2 =    -0.37131371681284D+03
 SCF Done:  E(RHF) =  -370.816906903     A.U. after    8 cycles
 E2 =    -0.4968994504D+00 EUMP2 =    -0.37131380635298D+03
 E2 =    -0.4968994504D+00 EUMP2 =    -0.37131380635298D+03
 SCF Done:  E(RHF) =  -370.816097061     A.U. after    9 cycles
 E2 =    -0.4976054861D+00 EUMP2 =    -0.37131370254759D+03
 E2 =    -0.4976054861D+00 EUMP2 =    -0.37131370254759D+03
 SCF Done:  E(RHF) =  -370.817253878     A.U. after    9 cycles
 E2 =    -0.4964396045D+00 EUMP2 =    -0.37131369348213D+03
 E2 =    -0.4964396045D+00 EUMP2 =    -0.37131369348213D+03
 SCF Done:  E(RHF) =  -370.816308581     A.U. after    9 cycles
 E2 =    -0.4973708598D+00 EUMP2 =    -0.37131367944087D+03
 E2 =    -0.4973708598D+00 EUMP2 =    -0.37131367944087D+03
 SCF Done:  E(RHF) =  -370.817005403     A.U. after    9 cycles
 E2 =    -0.4966704531D+00 EUMP2 =    -0.37131367585634D+03
 E2 =    -0.4966704531D+00 EUMP2 =    -0.37131367585634D+03

 Alpha  occ. eigenvalues --  -20.40191  -7.46698  -5.29254  -5.29228  -5.29223
 Alpha  occ. eigenvalues --   -2.02000  -2.01983  -2.01978  -2.01951  -2.01951
 Alpha  occ. eigenvalues --   -1.18690  -0.62879  -0.54318  -0.42940  -0.34732
 Alpha  occ. eigenvalues --   -0.14786  -0.14239  -0.14202
 Alpha virt. eigenvalues --    0.13227   0.16981   0.23337   0.24543   0.25242
 Alpha virt. eigenvalues --    0.26998   0.28783   0.29233   0.31254   0.33667
 Alpha virt. eigenvalues --    0.36696   0.37215   0.37589   0.39562   0.40988

 Mulliken charges:
               1
     1  O   -0.517666
     2  H    0.269449
     3  H    0.160903
     4  I   -0.912686
 Sum of Mulliken charges =  -1.00000

 Dipole moment (field-independent basis, Debye):
    X=             -1.3271    Y=             -0.0215    Z=             -0.0000  Tot=              1.3272
 Quadrupole moment (field-independent basis, Debye-Ang):
   XX=            -39.5769   YY=            -51.5338   ZZ=            -41.8734
   XY=             -4.7769   XZ=              0.0000   YZ=              0.0000

  Exact polarizability:  64.623  -1.418  78.026   0.000  -0.000  63.936
 Approx polarizability:  56.342  -0.805  58.352  -0.000  -0.000  54.803

                      1                      2                      3
                     A'                     A'                     A"
 Frequencies --    145.8361               340.6818               634.4469
 Red. masses --      6.4808                 1.0441                 1.0392
 Frc consts  --      0.0812                 0.0714                 0.2465
 IR Inten    --      4.4498                72.3677                24.4795

                      4                      5                      6
                     A'                     A'                     A'
 Frequencies --   1651.1206              3482.6837              3891.3176
 Red. masses --      1.0778                 1.0603                 1.0667
 Frc consts  --      1.7313                 7.5773                 9.5165
 IR Inten    --     39.9780               992.2478                52.2662

 - Thermochemistry -
 -------------------
 Temperature   298.150 Kelvin.  Pressure   1.00000 Atm.
 Atom     1 has atomic number  8 and mass  15.99491

 Molecular mass:   144.91096 amu.
 Principal axes and moments of inertia in atomic units:
                           1         2         3
     Eigenvalues --     2.98136 679.63783 682.61919
           X           -0.01639   0.99987   0.00000
           Y            0.99987   0.01639   0.00000
           Z           -0.00000  -0.00000   1.00000
 This molecule is an asymmetric top.
 Rotational symmetry number  1.
 Rotational temperatures (Kelvin)     29.05185     0.12744     0.12688
 Rotational constants (GHZ):         605.34239     2.65545     2.64385
 Zero-point vibrational energy      60687.1 (Joules/Mol)
                                   14.50456 (Kcal/Mol)
 Warning -- explicit consideration of   2 degrees of freedom as
           vibrations may cause significant error
 Vibrational temperatures:    209.83   490.17   912.83  2375.59  5010.81
          (Kelvin)           5598.74

 Zero-point correction=                           0.023114 (Hartree/Particle)
 Thermal correction to Energy=                    0.027114
 Thermal correction to Enthalpy=                  0.028058
 Thermal correction to Gibbs Free Energy=        -0.003781
 Sum of electronic and zero-point Energies=           -371.290666
 Sum of electronic and thermal Energies=              -371.286666
 Sum of electronic and thermal Enthalpies=            -371.285722
 Sum of electronic and thermal Free Energies=         -371.317561

                     E (Thermal)             CV                S
                      KCal/Mol        Cal/Mol-Kelvin    Cal/Mol-Kelvin
 Total                   17.014             10.466             67.011
 Electronic               0.000              0.000              0.000
 Translational            0.889              2.981             40.824
 Rotational               0.889              2.981             21.852
 Vibrational             15.237              4.505              4.335
 Vibration     1          0.617              1.907              2.726
 Vibration     2          0.720              1.594              1.209

 Optimization completed.
    -- Stationary point found.
 Normal termination of Gaussian 16 at Fri Oct 22 15:55:30 2021.
