 Gaussian 16, Revision B.01,
 Gaussian 16:  ES64L-G16RevB.01 20-Dec-2017

 -------------------------------------------------
 #p opt=(z-matrix) mp2/aug-cc-pvtz density=current
 -------------------------------------------------

 -----
 title
 -----
 Symbolic Z-matrix:
 Charge =  0 Multiplicity = 1

 SCF Done:  E(RHF) =  -534.597620792     A.U. after   12 cycles
 E2 =    -0.4342877638D+00 EUMP2 =    -0.53503190855568D+03
 Optimization completed.
    -- Stationary point found.
 SCF Done:  E(RHF) =  -534.719231446     A.U. after   11 cycles
 E2 =    -0.4358685222D+00 EUMP2 =    -0.53515509996857D+03
 Optimization completed.
 SCF Done:  E(RHF) =  -534.801533131     A.U. after   11 cycles
 E2 =    -0.4376533769D+00 EUMP2 =    -0.53523918650746D+03
 SCF Done:  E(RHF) =  -534.855907950     A.U. after   11 cycles
 E2 =    -0.4396039195D+00 EUMP2 =    -0.53529551186971D+03
 SCF Done:  E(RHF) =  -534.890305299     A.U. after   11 cycles
 E2 =    -0.4416938826D+00 EUMP2 =    -0.53533199918116D+03
 SCF Done:  E(RHF) =  -534.910354449     A.U. after   11 cycles
 E2 =    -0.4439024990D+00 EUMP2 =    -0.53535425694842D+03
 SCF Done:  E(RHF) =  -534.920088976     A.U. after   11 cycles
 E2 =    -0.4462094168D+00 EUMP2 =    -0.53536629839256D+03
 SCF Done:  E(RHF) =  -534.922424480     A.U. after   11 cycles
 E2 =    -0.4485932978D+00 EUMP2 =    -0.53537101777816D+03
 SCF Done:  E(RHF) =  -534.919480733     A.U. after   11 cycles
 E2 =    -0.4510339826D+00 EUMP2 =    -0.53537051471545D+03
 SCF Done:  E(RHF) =  -534.912805377     A.U. after   11 cycles
 E2 =    -0.4535158946D+00 EUMP2 =    -0.53536632127110D+03
 E2 =    -0.4560298422D+00 EUMP2 =    -0.53535956306392D+03
 E2 =    -0.4585724031D+00 EUMP2 =    -0.53535107290704D+03
 E2 =    -0.4611440496D+00 EUMP2 =    -0.53534147024639D+03
 E2 =    -0.4637473224D+00 EUMP2 =    -0.53533121676006D+03
 E2 =    -0.4663855691D+00 EUMP2 =    -0.53532065583072D+03
 E2 =    -0.4690622126D+00 EUMP2 =    -0.53531004124673D+03
 E2 =    -0.4717803655D+00 EUMP2 =    -0.53529955866202D+03
 E2 =    -0.4745426681D+00 EUMP2 =    -0.53528934205119D+03
 E2 =    -0.4773511960D+00 EUMP2 =    -0.53527948641808D+03
 SCF Done:  E(RHF) =  -534.789850164     A.U. after   12 cycles
 E2 =    -0.4802074613D+00 EUMP2 =    -0.53527005762516D+03
 SCF Done:  E(RHF) =  -534.777987401     A.U. after   11 cycles
 E2 =    -0.4831124201D+00 EUMP2 =    -0.53526109982159D+03
 SCF Done:  E(RHF) =  -534.766574446     A.U. after   11 cycles
 E2 =    -0.4860664959D+00 EUMP2 =    -0.53525264094211D+03
 SCF Done:  E(RHF) =  -534.755627086     A.U. after   11 cycles
 E2 =    -0.4890696246D+00 EUMP2 =    -0.53524469671021D+03
 SCF Done:  E(RHF) =  -534.745152222     A.U. after   11 cycles
 E2 =    -0.4921212925D+00 EUMP2 =    -0.53523727351469D+03
 SCF Done:  E(RHF) =  -534.735149932     A.U. after   11 cycles
 E2 =    -0.4952205765D+00 EUMP2 =    -0.53523037050837D+03
 SCF Done:  E(RHF) =  -534.725615005     A.U. after   11 cycles
 E2 =    -0.4983661682D+00 EUMP2 =    -0.53522398117350D+03
 SCF Done:  E(RHF) =  -534.716538153     A.U. after   11 cycles
 E2 =    -0.5015563865D+00 EUMP2 =    -0.53521809453964D+03
 SCF Done:  E(RHF) =  -534.707906990     A.U. after   11 cycles
 E2 =    -0.5047891848D+00 EUMP2 =    -0.53521269617508D+03
    -- Stationary point found.
 SCF Done:  E(RHF) =  -534.699706861     A.U. after   11 cycles
 E2 =    -0.5080621507D+00 EUMP2 =    -0.53520776901139D+03
 Optimization completed.
    -- Stationary point found.

                         Standard orientation:
 ---------------------------------------------------------------------
 Center     Atomic      Atomic             Coordinates (Angstroms)
 Number     Number       Type             X           Y           Z
 ---------------------------------------------------------------------
      1          8           0        0.075104    1.092949   -0.000000
      2         17           0        0.075104   -0.604052    0.000000
      3          1           0       -1.877606    1.525293    0.000000
 ---------------------------------------------------------------------

 The electronic state is 1-A'.
 Alpha  occ. eigenvalues -- -104.88782 -20.67752 -10.60650  -8.07349  -8.07084
 Alpha  occ. eigenvalues --   -8.07054  -1.34397  -1.02794  -0.60133  -0.58868
 Alpha  occ. eigenvalues --   -0.55446  -0.43724  -0.40367
 Alpha virt. eigenvalues --   -0.07696   0.05105   0.07543   0.11766   0.11810
 Alpha virt. eigenvalues --    0.14573   0.16089   0.17775   0.18990   0.22572
 Alpha virt. eigenvalues --    0.23914   0.27102   0.29743   0.34565   0.37038

 Mulliken charges:
               1
     1  O   -0.388612
     2  Cl   0.185975
     3  H    0.202637
 Sum of Mulliken charges =  -0.00000

 Dipole moment (field-independent basis, Debye):
    X=             -1.5959    Y=              0.0157    Z=              0.0000  Tot=              1.5959
 Quadrupole moment (field-independent basis, Debye-Ang):
   XX=            -15.4661   YY=            -17.6783   ZZ=            -20.2972
   XY=             -2.6961   XZ=              0.0000   YZ=              0.0000

 Normal termination of Gaussian 16 at Tue Nov 16 15:52:04 2021.
