 Gaussian 16, Revision B.01,
 Gaussian 16:  ES64L-G16RevB.01 20-Dec-2017

 ----------------------------------------------------
 #p pop=NBO SP NoSymm mp2/aug-cc-pvtz density=current
 ----------------------------------------------------

 -----
 title
 -----
 Symbolic Z-matrix:
 Charge = -1 Multiplicity = 1

                          Input orientation:
 ---------------------------------------------------------------------
 Center     Atomic      Atomic             Coordinates (Angstroms)
 Number     Number       Type             X           Y           Z
 ---------------------------------------------------------------------
      1          8           0        0.000000    0.000000    0.000000
      2         17           0        1.682749    0.000000    0.000000
      3         17           0       -0.679570   -2.824062    0.000000
      4          1           0       -0.350936   -1.458370    0.000000
 ---------------------------------------------------------------------

 SCF Done:  E(RHF) =  -994.488603685     A.U. after   13 cycles
 E2 =    -0.6781811861D+00 EUMP2 =    -0.99516678487086D+03

 Alpha  occ. eigenvalues -- -104.66137-104.62828 -20.35720 -10.38124 -10.35395
 Alpha  occ. eigenvalues --   -7.84830  -7.84630  -7.84626  -7.82064  -7.81964
 Alpha  occ. eigenvalues --   -7.81963  -1.10079  -0.88912  -0.80339  -0.43708
 Alpha  occ. eigenvalues --   -0.35337  -0.34440  -0.31160  -0.26938  -0.26885
 Alpha  occ. eigenvalues --   -0.19879  -0.19645
 Alpha virt. eigenvalues --    0.16151   0.20209   0.22671   0.24296   0.25595
 Alpha virt. eigenvalues --    0.25942   0.26562   0.31770   0.33449   0.34911
 Alpha virt. eigenvalues --    0.35421   0.36633   0.38634   0.47146   0.47398

 Mulliken charges:
               1
     1  O   -0.692547
     2  Cl  -0.051248
     3  Cl  -0.500806
     4  H    0.244601
 Sum of Mulliken charges =  -1.00000

 Dipole moment (field-independent basis, Debye):
    X=             -0.6365    Y=              5.0300    Z=              0.0000  Tot=              5.0702
 Quadrupole moment (field-independent basis, Debye-Ang):
   XX=            -40.2249   YY=            -52.7197   ZZ=            -36.3655
   XY=             -4.1785   XZ=              0.0000   YZ=             -0.0000

 Summary of Natural Population Analysis:

                                       Natural Population
                Natural  -----------------------------------------------
    Atom  No    Charge         Core      Valence    Rydberg      Total
 -----------------------------------------------------------------------
      O    1   -0.89517      1.99988     6.77756    0.11773     8.89517
     Cl    2    0.07988      9.99977     6.75310    0.16726    16.92012
     Cl    3   -0.52053      9.99964     7.38022    0.14067    17.52053
      H    4    0.33581      0.00000     0.63854    0.02565     0.66419
 =======================================================================
   * Total *   -1.00000     21.99928    21.54941    0.45131    44.00000

 Normal termination of Gaussian 16 at Fri Oct  8 12:26:43 2021.
