 Gaussian 16, Revision B.01,
 Gaussian 16:  ES64L-G16RevB.01 20-Dec-2017

 ----------------------------------------------------
 #p pop=NBO SP NoSymm mp2/aug-cc-pvtz density=current
 ----------------------------------------------------

 -----
 title
 -----
 Symbolic Z-matrix:
 Charge = -1 Multiplicity = 1

                          Input orientation:
 ---------------------------------------------------------------------
 Center     Atomic      Atomic             Coordinates (Angstroms)
 Number     Number       Type             X           Y           Z
 ---------------------------------------------------------------------
      1          8           0        0.000000    0.000000    0.000000
      2         17           0        1.682749    0.000000    0.000000
      3         17           0       -0.679570   -2.824062    0.000000
      4          1           0       -0.315842   -1.312533    0.000000
 ---------------------------------------------------------------------

 SCF Done:  E(RHF) =  -994.495076405     A.U. after   14 cycles
 E2 =    -0.6797635975D+00 EUMP2 =    -0.99517484000236D+03

 Alpha  occ. eigenvalues -- -104.68087-104.60187 -20.39015 -10.40066 -10.32681
 Alpha  occ. eigenvalues --   -7.86776  -7.86558  -7.86552  -7.79325  -7.79263
 Alpha  occ. eigenvalues --   -7.79262  -1.13241  -0.85466  -0.82438  -0.44713
 Alpha  occ. eigenvalues --   -0.37792  -0.36928  -0.29495  -0.24525  -0.24438
 Alpha  occ. eigenvalues --   -0.22185  -0.21316
 Alpha virt. eigenvalues --    0.16342   0.19776   0.22714   0.24281   0.25648
 Alpha virt. eigenvalues --    0.26265   0.26668   0.31424   0.33049   0.34588
 Alpha virt. eigenvalues --    0.34610   0.35460   0.38144   0.47122   0.47264

 Mulliken charges:
               1
     1  O   -0.610632
     2  Cl  -0.019883
     3  Cl  -0.600261
     4  H    0.230776
 Sum of Mulliken charges =  -1.00000

 Dipole moment (field-independent basis, Debye):
    X=              0.0668    Y=              6.5365    Z=              0.0000  Tot=              6.5368
 Quadrupole moment (field-independent basis, Debye-Ang):
   XX=            -39.8301   YY=            -57.2997   ZZ=            -36.4772
   XY=             -5.3141   XZ=              0.0000   YZ=             -0.0000

 Summary of Natural Population Analysis:

                                       Natural Population
                Natural  -----------------------------------------------
    Atom  No    Charge         Core      Valence    Rydberg      Total
 -----------------------------------------------------------------------
      O    1   -0.84756      1.99984     6.73281    0.11490     8.84756
     Cl    2    0.10466      9.99977     6.73630    0.15927    16.89534
     Cl    3   -0.62675      9.99979     7.48733    0.13963    17.62675
      H    4    0.36965      0.00000     0.60389    0.02647     0.63035
 =======================================================================
   * Total *   -1.00000     21.99940    21.56033    0.44026    44.00000

 Normal termination of Gaussian 16 at Fri Oct  8 12:25:56 2021.
