 Gaussian 16, Revision B.01,
 Gaussian 16:  ES64L-G16RevB.01 20-Dec-2017

 ----------------------------------------------------
 #p pop=NBO SP NoSymm mp2/aug-cc-pvtz density=current
 ----------------------------------------------------

 -----
 title
 -----
 Symbolic Z-matrix:
 Charge = -1 Multiplicity = 1

                          Input orientation:
 ---------------------------------------------------------------------
 Center     Atomic      Atomic             Coordinates (Angstroms)
 Number     Number       Type             X           Y           Z
 ---------------------------------------------------------------------
      1          8           0        0.000000    0.000000    0.000000
      2         17           0        1.682749    0.000000    0.000000
      3         17           0       -0.679570   -2.824062    0.000000
      4          1           0       -0.280749   -1.166696    0.000000
 ---------------------------------------------------------------------

 SCF Done:  E(RHF) =  -994.507709018     A.U. after   13 cycles
 E2 =    -0.6765483063D+00 EUMP2 =    -0.99518425732464D+03

 Alpha  occ. eigenvalues -- -104.70165-104.57439 -20.42278 -10.42133 -10.29926
 Alpha  occ. eigenvalues --   -7.88846  -7.88608  -7.88601  -7.76555  -7.76518
 Alpha  occ. eigenvalues --   -7.76517  -1.16927  -0.85700  -0.81613  -0.47821
 Alpha  occ. eigenvalues --   -0.40453  -0.39620  -0.28726  -0.24780  -0.22133
 Alpha  occ. eigenvalues --   -0.21930  -0.21699
 Alpha virt. eigenvalues --    0.16331   0.19253   0.22666   0.23976   0.25680
 Alpha virt. eigenvalues --    0.26766   0.27024   0.30865   0.31835   0.33708
 Alpha virt. eigenvalues --    0.34324   0.35106   0.38049   0.46558   0.46802

 Mulliken charges:
               1
     1  O   -0.552441
     2  Cl   0.007960
     3  Cl  -0.717678
     4  H    0.262158
 Sum of Mulliken charges =  -1.00000

 Dipole moment (field-independent basis, Debye):
    X=              0.7630    Y=              8.0115    Z=              0.0000  Tot=              8.0478
 Quadrupole moment (field-independent basis, Debye-Ang):
   XX=            -39.4359   YY=            -61.8097   ZZ=            -36.5828
   XY=             -6.4224   XZ=              0.0000   YZ=             -0.0000

 Summary of Natural Population Analysis:

                                       Natural Population
                Natural  -----------------------------------------------
    Atom  No    Charge         Core      Valence    Rydberg      Total
 -----------------------------------------------------------------------
      O    1   -0.81065      1.99979     6.69812    0.11275     8.81065
     Cl    2    0.12812      9.99978     6.72023    0.15188    16.87188
     Cl    3   -0.73725      9.99991     7.59476    0.14258    17.73725
      H    4    0.41978      0.00000     0.55411    0.02611     0.58022
 =======================================================================
   * Total *   -1.00000     21.99947    21.56721    0.43331    44.00000

 Normal termination of Gaussian 16 at Fri Oct  8 12:25:09 2021.
