 Gaussian 16, Revision B.01,
 Gaussian 16:  ES64L-G16RevB.01 20-Dec-2017

 ----------------------------------------------------
 #p pop=NBO SP NoSymm mp2/aug-cc-pvtz density=current
 ----------------------------------------------------

 -----
 title
 -----
 Symbolic Z-matrix:
 Charge = -1 Multiplicity = 1

                          Input orientation:
 ---------------------------------------------------------------------
 Center     Atomic      Atomic             Coordinates (Angstroms)
 Number     Number       Type             X           Y           Z
 ---------------------------------------------------------------------
      1          8           0        0.000000    0.000000    0.000000
      2         17           0        1.682749    0.000000    0.000000
      3         17           0       -0.679570   -2.824062    0.000000
      4          1           0       -0.245655   -1.020859    0.000000
 ---------------------------------------------------------------------

 SCF Done:  E(RHF) =  -994.522492147     A.U. after   13 cycles
 E2 =    -0.6694314222D+00 EUMP2 =    -0.99519192356938D+03

 Alpha  occ. eigenvalues -- -104.71978-104.55246 -20.44598 -10.43933 -10.27737
 Alpha  occ. eigenvalues --   -7.90649  -7.90394  -7.90385  -7.74356  -7.74336
 Alpha  occ. eigenvalues --   -7.74335  -1.20894  -0.88167  -0.79287  -0.52024
 Alpha  occ. eigenvalues --   -0.42812  -0.42007  -0.29771  -0.26804  -0.20793
 Alpha  occ. eigenvalues --   -0.20011  -0.20005
 Alpha virt. eigenvalues --    0.16159   0.18738   0.22590   0.23606   0.25797
 Alpha virt. eigenvalues --    0.27212   0.27432   0.29808   0.31136   0.32860
 Alpha virt. eigenvalues --    0.33808   0.35045   0.38488   0.45477   0.46338

 Mulliken charges:
               1
     1  O   -0.509150
     2  Cl   0.033885
     3  Cl  -0.817600
     4  H    0.292865
 Sum of Mulliken charges =  -1.00000

 Dipole moment (field-independent basis, Debye):
    X=              1.3823    Y=              9.2781    Z=             -0.0000  Tot=              9.3805
 Quadrupole moment (field-independent basis, Debye-Ang):
   XX=            -39.0486   YY=            -65.6832   ZZ=            -36.6553
   XY=             -7.3677   XZ=              0.0000   YZ=              0.0000

 Summary of Natural Population Analysis:

                                       Natural Population
                Natural  -----------------------------------------------
    Atom  No    Charge         Core      Valence    Rydberg      Total
 -----------------------------------------------------------------------
      O    1   -0.77629      1.99970     6.66588    0.11070     8.77629
     Cl    2    0.14785      9.99980     6.70595    0.14639    16.85215
     Cl    3   -0.83728     10.00001     7.69227    0.14501    17.83728
      H    4    0.46572      0.00000     0.50690    0.02738     0.53428
 =======================================================================
   * Total *   -1.00000     21.99951    21.57101    0.42948    44.00000

 Normal termination of Gaussian 16 at Fri Oct  8 12:24:22 2021.
