 Gaussian 16, Revision B.01,
 Gaussian 16:  ES64L-G16RevB.01 20-Dec-2017

 ----------------------------------------------------
 #p pop=NBO SP NoSymm mp2/aug-cc-pvtz density=current
 ----------------------------------------------------

 -----
 title
 -----
 Symbolic Z-matrix:
 Charge = -1 Multiplicity = 1

                          Input orientation:
 ---------------------------------------------------------------------
 Center     Atomic      Atomic             Coordinates (Angstroms)
 Number     Number       Type             X           Y           Z
 ---------------------------------------------------------------------
      1          8           0        0.000000    0.000000    0.000000
      2         17           0        1.682749    0.000000    0.000000
      3         17           0       -0.679570   -2.824062    0.000000
      4          1           0       -0.240608   -0.999884    0.000000
 ---------------------------------------------------------------------

 SCF Done:  E(RHF) =  -994.523881420     A.U. after   13 cycles
 E2 =    -0.6682443151D+00 EUMP2 =    -0.99519212573550D+03

 Alpha  occ. eigenvalues -- -104.72204-104.54993 -20.44821 -10.44158 -10.27484
 Alpha  occ. eigenvalues --   -7.90874  -7.90616  -7.90607  -7.74101  -7.74083
 Alpha  occ. eigenvalues --   -7.74082  -1.21497  -0.88528  -0.79005  -0.52672
 Alpha  occ. eigenvalues --   -0.43110  -0.42308  -0.29979  -0.27057  -0.20595
 Alpha  occ. eigenvalues --   -0.19782  -0.19778
 Alpha virt. eigenvalues --    0.16128   0.18669   0.22582   0.23557   0.25819
 Alpha virt. eigenvalues --    0.27266   0.27486   0.29641   0.31077   0.32744
 Alpha virt. eigenvalues --    0.33745   0.35026   0.38581   0.45309   0.46288

 Mulliken charges:
               1
     1  O   -0.499976
     2  Cl   0.037576
     3  Cl  -0.829520
     4  H    0.291920
 Sum of Mulliken charges =  -1.00000

 Dipole moment (field-independent basis, Debye):
    X=              1.4617    Y=              9.4349    Z=             -0.0000  Tot=              9.5475
 Quadrupole moment (field-independent basis, Debye-Ang):
   XX=            -38.9929   YY=            -66.1584   ZZ=            -36.6607
   XY=             -7.4837   XZ=              0.0000   YZ=             -0.0000

 Summary of Natural Population Analysis:

                                       Natural Population
                Natural  -----------------------------------------------
    Atom  No    Charge         Core      Valence    Rydberg      Total
 -----------------------------------------------------------------------
      O    1   -0.77004      1.99969     6.66006    0.11030     8.77004
     Cl    2    0.15020      9.99981     6.70419    0.14580    16.84980
     Cl    3   -0.85006     10.00002     7.70472    0.14532    17.85006
      H    4    0.46989      0.00000     0.50250    0.02760     0.53011
 =======================================================================
   * Total *   -1.00000     21.99951    21.57147    0.42902    44.00000

 Normal termination of Gaussian 16 at Fri Oct 15 16:15:32 2021.
