 Gaussian 16, Revision B.01,
 Gaussian 16:  ES64L-G16RevB.01 20-Dec-2017

 ----------------------------------------------------
 #p pop=NBO SP NoSymm mp2/aug-cc-pvtz density=current
 ----------------------------------------------------

 -----
 title
 -----
 Symbolic Z-matrix:
 Charge = -1 Multiplicity = 1

                          Input orientation:
 ---------------------------------------------------------------------
 Center     Atomic      Atomic             Coordinates (Angstroms)
 Number     Number       Type             X           Y           Z
 ---------------------------------------------------------------------
      1          8           0        0.000000    0.000000    0.000000
      2         17           0        1.682749    0.000000    0.000000
      3         17           0       -0.679570   -2.824062    0.000000
      4          1           0       -0.175468   -0.729185    0.000000
 ---------------------------------------------------------------------

 SCF Done:  E(RHF) =  -994.449674972     A.U. after   13 cycles
 E2 =    -0.6532500757D+00 EUMP2 =    -0.99510292504793D+03

 Alpha  occ. eigenvalues -- -104.74431-104.52920 -20.45217 -10.46354 -10.25385
 Alpha  occ. eigenvalues --   -7.93074  -7.92795  -7.92783  -7.71995  -7.71991
 Alpha  occ. eigenvalues --   -7.71991  -1.31412  -0.93297  -0.76527  -0.60920
 Alpha  occ. eigenvalues --   -0.46102  -0.45333  -0.32424  -0.29526  -0.18534
 Alpha  occ. eigenvalues --   -0.17772  -0.17767
 Alpha virt. eigenvalues --    0.15681   0.17999   0.22585   0.23078   0.26197
 Alpha virt. eigenvalues --    0.27507   0.27968   0.28171   0.30365   0.31393
 Alpha virt. eigenvalues --    0.33031   0.34619   0.39856   0.43508   0.46119

 Mulliken charges:
               1
     1  O   -0.232989
     2  Cl   0.077375
     3  Cl  -0.934856
     4  H    0.090470
 Sum of Mulliken charges =  -1.00000

 Dipole moment (field-independent basis, Debye):
    X=              2.2551    Y=             10.8609    Z=              0.0000  Tot=             11.0926
 Quadrupole moment (field-independent basis, Debye-Ang):
   XX=            -38.2406   YY=            -70.2630   ZZ=            -36.5878
   XY=             -8.5032   XZ=             -0.0000   YZ=             -0.0000

 Summary of Natural Population Analysis:

                                       Natural Population
                Natural  -----------------------------------------------
    Atom  No    Charge         Core      Valence    Rydberg      Total
 -----------------------------------------------------------------------
      O    1   -0.61823      1.99935     6.51494    0.10394     8.61823
     Cl    2    0.16759      9.99988     6.69048    0.14205    16.83241
     Cl    3   -0.96160     10.00009     7.81161    0.14990    17.96160
      H    4    0.41225      0.00000     0.55868    0.02907     0.58775
 =======================================================================
   * Total *   -1.00000     21.99932    21.57572    0.42497    44.00000

 Normal termination of Gaussian 16 at Fri Oct  8 12:22:52 2021.
