 Gaussian 16, Revision B.01,
 Gaussian 16:  ES64L-G16RevB.01 20-Dec-2017

 ----------------------------------------------------
 #p pop=NBO SP NoSymm mp2/aug-cc-pvtz density=current
 ----------------------------------------------------

 -----
 title
 -----
 Symbolic Z-matrix:
 Charge = -1 Multiplicity = 1

                          Input orientation:
 ---------------------------------------------------------------------
 Center     Atomic      Atomic             Coordinates (Angstroms)
 Number     Number       Type             X           Y           Z
 ---------------------------------------------------------------------
      1          8           0        0.000000    0.000000    0.000000
      2         17           0        1.682749    0.000000    0.000000
      3         17           0       -0.679570   -2.824062    0.000000
      4          1           0       -0.222259   -0.923635    0.000000
 ---------------------------------------------------------------------

 SCF Done:  E(RHF) =  -994.524615284     A.U. after   13 cycles
 E2 =    -0.6638283860D+00 EUMP2 =    -0.99518844367044D+03

 Alpha  occ. eigenvalues -- -104.72953-104.54202 -20.45384 -10.44899 -10.26689
 Alpha  occ. eigenvalues --   -7.91617  -7.91352  -7.91342  -7.73303  -7.73291
 Alpha  occ. eigenvalues --   -7.73290  -1.23815  -0.89845  -0.78104  -0.55063
 Alpha  occ. eigenvalues --   -0.44102  -0.43315  -0.30740  -0.27890  -0.19906
 Alpha  occ. eigenvalues --   -0.19047  -0.19046
 Alpha virt. eigenvalues --    0.16006   0.18440   0.22564   0.23393   0.25907
 Alpha virt. eigenvalues --    0.27433   0.27662   0.29077   0.30887   0.32337
 Alpha virt. eigenvalues --    0.33534   0.34942   0.38946   0.44709   0.46156

 Mulliken charges:
               1
     1  O   -0.449123
     2  Cl   0.050580
     3  Cl  -0.867700
     4  H    0.266243
 Sum of Mulliken charges =  -1.00000

 Dipole moment (field-independent basis, Debye):
    X=              1.7271    Y=              9.9459    Z=             -0.0000  Tot=             10.0948
 Quadrupole moment (field-independent basis, Debye-Ang):
   XX=            -38.7885   YY=            -67.6883   ZZ=            -36.6674
   XY=             -7.8585   XZ=              0.0000   YZ=             -0.0000

 Summary of Natural Population Analysis:

                                       Natural Population
                Natural  -----------------------------------------------
    Atom  No    Charge         Core      Valence    Rydberg      Total
 -----------------------------------------------------------------------
      O    1   -0.74185      1.99963     6.63369    0.10852     8.74185
     Cl    2    0.15751      9.99983     6.69861    0.14406    16.84249
     Cl    3   -0.89216     10.00005     7.74563    0.14647    17.89216
      H    4    0.47649      0.00000     0.49523    0.02828     0.52351
 =======================================================================
   * Total *   -1.00000     21.99951    21.57316    0.42733    44.00000

 Normal termination of Gaussian 16 at Fri Oct  8 12:23:52 2021.
