 Gaussian 16, Revision B.01,
 Gaussian 16:  ES64L-G16RevB.01 20-Dec-2017

 ----------------------------------------------------
 #p pop=NBO SP NoSymm mp2/aug-cc-pvtz density=current
 ----------------------------------------------------

 -----
 title
 -----
 Symbolic Z-matrix:
 Charge = -1 Multiplicity = 1

                          Input orientation:
 ---------------------------------------------------------------------
 Center     Atomic      Atomic             Coordinates (Angstroms)
 Number     Number       Type             X           Y           Z
 ---------------------------------------------------------------------
      1          8           0        0.000000    0.000000    0.000000
      2         17           0        1.682749    0.000000    0.000000
      3         17           0       -0.679570   -2.824062    0.000000
      4          1           0       -0.269051   -1.118084    0.000000
 ---------------------------------------------------------------------

 SCF Done:  E(RHF) =  -994.512999670     A.U. after   13 cycles
 E2 =    -0.6744823282D+00 EUMP2 =    -0.99518748199775D+03

 Alpha  occ. eigenvalues -- -104.70812-104.56626 -20.43191 -10.42776 -10.29116
 Alpha  occ. eigenvalues --   -7.89491  -7.89246  -7.89238  -7.75741  -7.75710
 Alpha  occ. eigenvalues --   -7.75709  -1.18217  -0.86501  -0.80779  -0.49142
 Alpha  occ. eigenvalues --   -0.41291  -0.40467  -0.28942  -0.25500  -0.21671
 Alpha  occ. eigenvalues --   -0.21235  -0.21187
 Alpha virt. eigenvalues --    0.16286   0.19076   0.22639   0.23850   0.25711
 Alpha virt. eigenvalues --    0.26926   0.27164   0.30564   0.31520   0.33419
 Alpha virt. eigenvalues --    0.34139   0.35102   0.38144   0.46227   0.46630

 Mulliken charges:
               1
     1  O   -0.538831
     2  Cl   0.016672
     3  Cl  -0.754039
     4  H    0.276199
 Sum of Mulliken charges =  -1.00000

 Dipole moment (field-independent basis, Debye):
    X=              0.9812    Y=              8.4646    Z=              0.0000  Tot=              8.5212
 Quadrupole moment (field-independent basis, Debye-Ang):
   XX=            -39.3066   YY=            -63.1990   ZZ=            -36.6126
   XY=             -6.7618   XZ=              0.0000   YZ=              0.0000

 Summary of Natural Population Analysis:

                                       Natural Population
                Natural  -----------------------------------------------
    Atom  No    Charge         Core      Valence    Rydberg      Total
 -----------------------------------------------------------------------
      O    1   -0.80005      1.99976     6.68814    0.11215     8.80005
     Cl    2    0.13526      9.99978     6.71516    0.14980    16.86474
     Cl    3   -0.77244      9.99994     7.62902    0.14347    17.77244
      H    4    0.43724      0.00000     0.53636    0.02641     0.56276
 =======================================================================
   * Total *   -1.00000     21.99949    21.56869    0.43182    44.00000

 Normal termination of Gaussian 16 at Fri Oct  8 12:24:54 2021.
