 Gaussian 16, Revision B.01,
 Gaussian 16:  ES64L-G16RevB.01 20-Dec-2017

 ----------------------------------------------------
 #p pop=NBO SP NoSymm mp2/aug-cc-pvtz density=current
 ----------------------------------------------------

 -----
 title
 -----
 Symbolic Z-matrix:
 Charge = -1 Multiplicity = 1

                          Input orientation:
 ---------------------------------------------------------------------
 Center     Atomic      Atomic             Coordinates (Angstroms)
 Number     Number       Type             X           Y           Z
 ---------------------------------------------------------------------
      1          8           0        0.000000    0.000000    0.000000
      2         17           0        1.682749    0.000000    0.000000
      3         17           0       -0.679570   -2.824062    0.000000
      4          1           0       -0.292446   -1.215309    0.000000
 ---------------------------------------------------------------------

 SCF Done:  E(RHF) =  -994.502779802     A.U. after   13 cycles
 E2 =    -0.6781665472D+00 EUMP2 =    -0.99518094634898D+03

 Alpha  occ. eigenvalues -- -104.69485-104.58318 -20.41256 -10.41457 -10.30804
 Alpha  occ. eigenvalues --   -7.88169  -7.87938  -7.87931  -7.77438  -7.77393
 Alpha  occ. eigenvalues --   -7.77392  -1.15663  -0.85017  -0.82412  -0.46619
 Alpha  occ. eigenvalues --   -0.39578  -0.38736  -0.28742  -0.24073  -0.22817
 Alpha  occ. eigenvalues --   -0.22625  -0.21843
 Alpha virt. eigenvalues --    0.16357   0.19431   0.22690   0.24097   0.25658
 Alpha virt. eigenvalues --    0.26598   0.26889   0.31091   0.32233   0.34001
 Alpha virt. eigenvalues --    0.34498   0.35120   0.38018   0.46832   0.46975

 Mulliken charges:
               1
     1  O   -0.568474
     2  Cl  -0.000962
     3  Cl  -0.679188
     4  H    0.248624
 Sum of Mulliken charges =  -1.00000

 Dipole moment (field-independent basis, Debye):
    X=              0.5363    Y=              7.5349    Z=              0.0000  Tot=              7.5540
 Quadrupole moment (field-independent basis, Debye-Ang):
   XX=            -39.5662   YY=            -60.3491   ZZ=            -36.5495
   XY=             -6.0647   XZ=             -0.0000   YZ=             -0.0000

 Summary of Natural Population Analysis:

                                       Natural Population
                Natural  -----------------------------------------------
    Atom  No    Charge         Core      Valence    Rydberg      Total
 -----------------------------------------------------------------------
      O    1   -0.82172      1.99981     6.70853    0.11338     8.82172
     Cl    2    0.12058      9.99977     6.72547    0.15418    16.87942
     Cl    3   -0.70088      9.99987     7.55940    0.14161    17.70088
      H    4    0.40202      0.00000     0.57197    0.02601     0.59798
 =======================================================================
   * Total *   -1.00000     21.99945    21.56537    0.43518    44.00000

 Normal termination of Gaussian 16 at Fri Oct  8 12:25:25 2021.
