 Gaussian 16, Revision B.01,
 Gaussian 16:  ES64L-G16RevB.01 20-Dec-2017

 ----------------------------------------------------
 #p pop=NBO SP NoSymm mp2/aug-cc-pvtz density=current
 ----------------------------------------------------

 -----
 title
 -----
 Symbolic Z-matrix:
 Charge = -1 Multiplicity = 1

                          Input orientation:
 ---------------------------------------------------------------------
 Center     Atomic      Atomic             Coordinates (Angstroms)
 Number     Number       Type             X           Y           Z
 ---------------------------------------------------------------------
      1          8           0        0.000000    0.000000    0.000000
      2         17           0        1.682749    0.000000    0.000000
      3         17           0       -0.679570   -2.824062    0.000000
      4          1           0       -0.187166   -0.777798    0.000000
 ---------------------------------------------------------------------

 SCF Done:  E(RHF) =  -994.485595595     A.U. after   12 cycles
 E2 =    -0.6556988191D+00 EUMP2 =    -0.99514129441406D+03

 Alpha  occ. eigenvalues -- -104.74108-104.53161 -20.45445 -10.46038 -10.25633
 Alpha  occ. eigenvalues --   -7.92757  -7.92481  -7.92470  -7.72243  -7.72238
 Alpha  occ. eigenvalues --   -7.72238  -1.29199  -0.92419  -0.76840  -0.59533
 Alpha  occ. eigenvalues --   -0.45658  -0.44890  -0.32047  -0.29168  -0.18822
 Alpha  occ. eigenvalues --   -0.18025  -0.18020
 Alpha virt. eigenvalues --    0.15762   0.18092   0.22572   0.23145   0.26120
 Alpha virt. eigenvalues --    0.27565   0.27911   0.28299   0.30509   0.31618
 Alpha virt. eigenvalues --    0.33160   0.34718   0.39649   0.43756   0.46096

 Mulliken charges:
               1
     1  O   -0.281668
     2  Cl   0.071314
     3  Cl  -0.921936
     4  H    0.132290
 Sum of Mulliken charges =  -1.00000

 Dipole moment (field-independent basis, Debye):
    X=              2.1402    Y=             10.6783    Z=             -0.0000  Tot=             10.8907
 Quadrupole moment (field-independent basis, Debye-Ang):
   XX=            -38.3828   YY=            -69.7797   ZZ=            -36.6201
   XY=             -8.3793   XZ=             -0.0000   YZ=              0.0000

 Summary of Natural Population Analysis:

                                       Natural Population
                Natural  -----------------------------------------------
    Atom  No    Charge         Core      Valence    Rydberg      Total
 -----------------------------------------------------------------------
      O    1   -0.65715      1.99945     6.55276    0.10494     8.65715
     Cl    2    0.16612      9.99987     6.69173    0.14228    16.83388
     Cl    3   -0.94974     10.00009     7.80063    0.14903    17.94974
      H    4    0.44077      0.00000     0.53038    0.02885     0.55923
 =======================================================================
   * Total *   -1.00000     21.99941    21.57550    0.42510    44.00000

 Normal termination of Gaussian 16 at Fri Oct  8 12:23:07 2021.
