 Gaussian 16, Revision B.01,
 Gaussian 16:  ES64L-G16RevB.01 20-Dec-2017

 ----------------------------------------------------
 #p pop=NBO SP NoSymm mp2/aug-cc-pvtz density=current
 ----------------------------------------------------

 -----
 title
 -----
 Symbolic Z-matrix:
 Charge = -1 Multiplicity = 1

                          Input orientation:
 ---------------------------------------------------------------------
 Center     Atomic      Atomic             Coordinates (Angstroms)
 Number     Number       Type             X           Y           Z
 ---------------------------------------------------------------------
      1          8           0        0.000000    0.000000    0.000000
      2         17           0        1.682749    0.000000    0.000000
      3         17           0       -0.679570   -2.824062    0.000000
      4          1           0       -0.257353   -1.069472    0.000000
 ---------------------------------------------------------------------

 SCF Done:  E(RHF) =  -994.518159369     A.U. after   13 cycles
 E2 =    -0.6720739045D+00 EUMP2 =    -0.99519023327346D+03

 Alpha  occ. eigenvalues -- -104.71419-104.55893 -20.43969 -10.43378 -10.28384
 Alpha  occ. eigenvalues --   -7.90094  -7.89843  -7.89835  -7.75006  -7.74981
 Alpha  occ. eigenvalues --   -7.74980  -1.19536  -0.87331  -0.79996  -0.50551
 Alpha  occ. eigenvalues --   -0.42080  -0.41265  -0.29315  -0.26178  -0.21246
 Alpha  occ. eigenvalues --   -0.20591  -0.20576
 Alpha virt. eigenvalues --    0.16228   0.18903   0.22613   0.23725   0.25751
 Alpha virt. eigenvalues --    0.27076   0.27302   0.30198   0.31297   0.33135
 Alpha virt. eigenvalues --    0.33966   0.35082   0.38295   0.45861   0.46472

 Mulliken charges:
               1
     1  O   -0.525559
     2  Cl   0.025291
     3  Cl  -0.787495
     4  H    0.287763
 Sum of Mulliken charges =  -1.00000

 Dipole moment (field-independent basis, Debye):
    X=              1.1882    Y=              8.8883    Z=             -0.0000  Tot=              8.9674
 Quadrupole moment (field-independent basis, Debye-Ang):
   XX=            -39.1776   YY=            -64.4959   ZZ=            -36.6372
   XY=             -7.0782   XZ=             -0.0000   YZ=              0.0000

 Summary of Natural Population Analysis:

                                       Natural Population
                Natural  -----------------------------------------------
    Atom  No    Charge         Core      Valence    Rydberg      Total
 -----------------------------------------------------------------------
      O    1   -0.78897      1.99974     6.67774    0.11150     8.78897
     Cl    2    0.14188      9.99979     6.71037    0.14796    16.85812
     Cl    3   -0.80593      9.99998     7.66168    0.14428    17.80593
      H    4    0.45302      0.00000     0.52012    0.02686     0.54698
 =======================================================================
   * Total *   -1.00000     21.99950    21.56991    0.43059    44.00000

 Normal termination of Gaussian 16 at Fri Oct  8 12:24:38 2021.
