 Gaussian 16, Revision B.01,
 Gaussian 16:  ES64L-G16RevB.01 20-Dec-2017

 ----------------------------------------------------
 #p pop=NBO SP NoSymm mp2/aug-cc-pvtz density=current
 ----------------------------------------------------

 -----
 title
 -----
 Symbolic Z-matrix:
 Charge = -1 Multiplicity = 1

                          Input orientation:
 ---------------------------------------------------------------------
 Center     Atomic      Atomic             Coordinates (Angstroms)
 Number     Number       Type             X           Y           Z
 ---------------------------------------------------------------------
      1          8           0        0.000000    0.000000    0.000000
      2         17           0        1.682749    0.000000    0.000000
      3         17           0       -0.679570   -2.824062    0.000000
      4          1           0       -0.339238   -1.409758    0.000000
 ---------------------------------------------------------------------

 SCF Done:  E(RHF) =  -994.490371604     A.U. after   13 cycles
 E2 =    -0.6791455469D+00 EUMP2 =    -0.99516951715137D+03

 Alpha  occ. eigenvalues -- -104.66748-104.62009 -20.36764 -10.38733 -10.34540
 Alpha  occ. eigenvalues --   -7.85440  -7.85234  -7.85230  -7.81199  -7.81114
 Alpha  occ. eigenvalues --   -7.81113  -1.11052  -0.87679  -0.81036  -0.43745
 Alpha  occ. eigenvalues --   -0.36100  -0.35211  -0.30667  -0.26151  -0.26098
 Alpha  occ. eigenvalues --   -0.20620  -0.20234
 Alpha virt. eigenvalues --    0.16234   0.20079   0.22695   0.24331   0.25645
 Alpha virt. eigenvalues --    0.26000   0.26564   0.31678   0.33460   0.34721
 Alpha virt. eigenvalues --    0.35154   0.36200   0.38448   0.47137   0.47399

 Mulliken charges:
               1
     1  O   -0.664004
     2  Cl  -0.040511
     3  Cl  -0.528696
     4  H    0.233210
 Sum of Mulliken charges =  -1.00000

 Dipole moment (field-independent basis, Debye):
    X=             -0.4066    Y=              5.5229    Z=              0.0000  Tot=              5.5379
 Quadrupole moment (field-independent basis, Debye-Ang):
   XX=            -40.0958   YY=            -54.2177   ZZ=            -36.4029
   XY=             -4.5506   XZ=              0.0000   YZ=             -0.0000

 Summary of Natural Population Analysis:

                                       Natural Population
                Natural  -----------------------------------------------
    Atom  No    Charge         Core      Valence    Rydberg      Total
 -----------------------------------------------------------------------
      O    1   -0.87822      1.99987     6.76172    0.11663     8.87822
     Cl    2    0.08816      9.99977     6.74744    0.16464    16.91184
     Cl    3   -0.55663      9.99970     7.41566    0.14128    17.55663
      H    4    0.34669      0.00000     0.62835    0.02496     0.65331
 =======================================================================
   * Total *   -1.00000     21.99933    21.55316    0.44751    44.00000

 Normal termination of Gaussian 16 at Fri Oct  8 12:26:28 2021.
