 Gaussian 16, Revision B.01,
 Gaussian 16:  ES64L-G16RevB.01 20-Dec-2017

 ----------------------------------------------------
 #p pop=NBO SP NoSymm mp2/aug-cc-pvtz density=current
 ----------------------------------------------------

 -----
 title
 -----
 Symbolic Z-matrix:
 Charge = -1 Multiplicity = 1

                          Input orientation:
 ---------------------------------------------------------------------
 Center     Atomic      Atomic             Coordinates (Angstroms)
 Number     Number       Type             X           Y           Z
 ---------------------------------------------------------------------
      1          8           0        0.000000    0.000000    0.000000
      2         17           0        1.682749    0.000000    0.000000
      3         17           0       -0.679570   -2.824062    0.000000
      4          1           0       -0.304144   -1.263921    0.000000
 ---------------------------------------------------------------------

 SCF Done:  E(RHF) =  -994.498522296     A.U. after   14 cycles
 E2 =    -0.6792529551D+00 EUMP2 =    -0.99517777525078D+03

 Alpha  occ. eigenvalues -- -104.68787-104.59243 -20.40156 -10.40763 -10.31731
 Alpha  occ. eigenvalues --   -7.87474  -7.87249  -7.87243  -7.78369  -7.78316
 Alpha  occ. eigenvalues --   -7.78315  -1.14430  -0.84816  -0.82809  -0.45570
 Alpha  occ. eigenvalues --   -0.38684  -0.37831  -0.29015  -0.23857  -0.23609
 Alpha  occ. eigenvalues --   -0.22841  -0.21688
 Alpha virt. eigenvalues --    0.16361   0.19607   0.22707   0.24202   0.25648
 Alpha virt. eigenvalues --    0.26429   0.26767   0.31271   0.32659   0.34296
 Alpha virt. eigenvalues --    0.34599   0.35220   0.38053   0.47024   0.47134

 Mulliken charges:
               1
     1  O   -0.587847
     2  Cl  -0.010214
     3  Cl  -0.639620
     4  H    0.237681
 Sum of Mulliken charges =  -1.00000

 Dipole moment (field-independent basis, Debye):
    X=              0.3034    Y=              7.0411    Z=             -0.0000  Tot=              7.0476
 Quadrupole moment (field-independent basis, Debye-Ang):
   XX=            -39.6975   YY=            -58.8388   ZZ=            -36.5139
   XY=             -5.6936   XZ=             -0.0000   YZ=              0.0000

 Summary of Natural Population Analysis:

                                       Natural Population
                Natural  -----------------------------------------------
    Atom  No    Charge         Core      Valence    Rydberg      Total
 -----------------------------------------------------------------------
      O    1   -0.83391      1.99983     6.71999    0.11409     8.83391
     Cl    2    0.11274      9.99977     6.73083    0.15666    16.88726
     Cl    3   -0.66388      9.99983     7.52345    0.14060    17.66388
      H    4    0.38506      0.00000     0.58881    0.02613     0.61494
 =======================================================================
   * Total *   -1.00000     21.99943    21.56308    0.43749    44.00000

 Normal termination of Gaussian 16 at Fri Oct  8 12:25:40 2021.
