 Gaussian 16, Revision B.01,
 Gaussian 16:  ES64L-G16RevB.01 20-Dec-2017

 ----------------------------------------------------
 #p pop=NBO SP NoSymm mp2/aug-cc-pvtz density=current
 ----------------------------------------------------

 -----
 title
 -----
 Symbolic Z-matrix:
 Charge = -1 Multiplicity = 1

                          Input orientation:
 ---------------------------------------------------------------------
 Center     Atomic      Atomic             Coordinates (Angstroms)
 Number     Number       Type             X           Y           Z
 ---------------------------------------------------------------------
      1          8           0        0.000000    0.000000    0.000000
      2         17           0        1.682749    0.000000    0.000000
      3         17           0       -0.679570   -2.824062    0.000000
      4          1           0       -0.198864   -0.826410    0.000000
 ---------------------------------------------------------------------

 SCF Done:  E(RHF) =  -994.507498347     A.U. after   13 cycles
 E2 =    -0.6583007056D+00 EUMP2 =    -0.99516579905259D+03

 Alpha  occ. eigenvalues -- -104.73758-104.53449 -20.45560 -10.45693 -10.25927
 Alpha  occ. eigenvalues --   -7.92412  -7.92139  -7.92129  -7.72538  -7.72531
 Alpha  occ. eigenvalues --   -7.72531  -1.27220  -0.91550  -0.77203  -0.58083
 Alpha  occ. eigenvalues --   -0.45181  -0.44410  -0.31640  -0.28781  -0.19146
 Alpha  occ. eigenvalues --   -0.18318  -0.18314
 Alpha virt. eigenvalues --    0.15844   0.18195   0.22564   0.23219   0.26043
 Alpha virt. eigenvalues --    0.27560   0.27840   0.28502   0.30644   0.31850
 Alpha virt. eigenvalues --    0.33285   0.34805   0.39424   0.44037   0.46092

 Mulliken charges:
               1
     1  O   -0.341164
     2  Cl   0.065022
     3  Cl  -0.906359
     4  H    0.182501
 Sum of Mulliken charges =  -1.00000

 Dipole moment (field-independent basis, Debye):
    X=              2.0150    Y=             10.4671    Z=              0.0000  Tot=             10.6593
 Quadrupole moment (field-independent basis, Debye-Ang):
   XX=            -38.5211   YY=            -69.1964   ZZ=            -36.6444
   XY=             -8.2322   XZ=              0.0000   YZ=              0.0000

 Summary of Natural Population Analysis:

                                       Natural Population
                Natural  -----------------------------------------------
    Atom  No    Charge         Core      Valence    Rydberg      Total
 -----------------------------------------------------------------------
      O    1   -0.69037      1.99952     6.58481    0.10604     8.69037
     Cl    2    0.16398      9.99986     6.69348    0.14268    16.83602
     Cl    3   -0.93424     10.00008     7.78601    0.14814    17.93424
      H    4    0.46063      0.00000     0.51066    0.02871     0.53937
 =======================================================================
   * Total *   -1.00000     21.99946    21.57496    0.42557    44.00000

 Normal termination of Gaussian 16 at Fri Oct  8 12:23:22 2021.
