 Gaussian 16, Revision B.01,
 Gaussian 16:  ES64L-G16RevB.01 20-Dec-2017

 ----------------------------------------------------
 #p pop=NBO SP NoSymm mp2/aug-cc-pvtz density=current
 ----------------------------------------------------

 -----
 title
 -----
 Symbolic Z-matrix:
 Charge = -1 Multiplicity = 1

                          Input orientation:
 ---------------------------------------------------------------------
 Center     Atomic      Atomic             Coordinates (Angstroms)
 Number     Number       Type             X           Y           Z
 ---------------------------------------------------------------------
      1          8           0        0.000000    0.000000    0.000000
      2         17           0        1.682749    0.000000    0.000000
      3         17           0       -0.679570   -2.824062    0.000000
      4          1           0       -0.116979   -0.486123    0.000000
 ---------------------------------------------------------------------

 SCF Done:  E(RHF) =  -993.751355190     A.U. after   13 cycles
 E2 =    -0.6443779449D+00 EUMP2 =    -0.99439573313475D+03

 Alpha  occ. eigenvalues -- -104.75821-104.52173 -20.44709 -10.47695 -10.24608
 Alpha  occ. eigenvalues --   -7.94415  -7.94126  -7.94113  -7.71216  -7.71216
 Alpha  occ. eigenvalues --   -7.71216  -1.46089  -0.97447  -0.75482  -0.66598
 Alpha  occ. eigenvalues --   -0.48069  -0.47151  -0.33993  -0.31064  -0.17505
 Alpha  occ. eigenvalues --   -0.16923  -0.16916
 Alpha virt. eigenvalues --    0.15293   0.17617   0.22696   0.22820   0.26368
 Alpha virt. eigenvalues --    0.26769   0.28065   0.28151   0.29715   0.30367
 Alpha virt. eigenvalues --    0.32325   0.34133   0.40579   0.42637   0.46411

 Mulliken charges:
               1
     1  O   -0.255115
     2  Cl   0.113640
     3  Cl  -0.966623
     4  H    0.108099
 Sum of Mulliken charges =  -1.00000

 Dipole moment (field-independent basis, Debye):
    X=              2.7343    Y=             11.4664    Z=              0.0000  Tot=             11.7879
 Quadrupole moment (field-independent basis, Debye-Ang):
   XX=            -37.4436   YY=            -71.5873   ZZ=            -36.3165
   XY=             -8.8737   XZ=             -0.0000   YZ=             -0.0000

 Summary of Natural Population Analysis:

                                       Natural Population
                Natural  -----------------------------------------------
    Atom  No    Charge         Core      Valence    Rydberg      Total
 -----------------------------------------------------------------------
      O    1   -0.31563      1.99764     6.22010    0.09789     8.31563
     Cl    2    0.17083      9.99993     6.68795    0.14129    16.82917
     Cl    3   -0.98704     10.00009     7.83055    0.15640    17.98704
      H    4    0.13184      0.00000     0.83061    0.03754     0.86816
 =======================================================================
   * Total *   -1.00000     21.99766    21.56921    0.43313    44.00000

 Normal termination of Gaussian 16 at Mon Nov 15 07:36:04 2021.
