 Gaussian 16, Revision B.01,
 Gaussian 16:  ES64L-G16RevB.01 20-Dec-2017

 -------------------------------------------------
 #p opt=(z-matrix) mp2/aug-cc-pvtz density=current
 -------------------------------------------------

 -----
 title
 -----
 Symbolic Z-matrix:
 Charge = -1 Multiplicity = 1

 SCF Done:  E(RHF) =  -993.751355190     A.U. after   13 cycles
 E2 =    -0.6443779449D+00 EUMP2 =    -0.99439573313475D+03
 Optimization completed.
    -- Stationary point found.
 SCF Done:  E(RHF) =  -994.009821503     A.U. after   11 cycles
 E2 =    -0.6455561095D+00 EUMP2 =    -0.99465537761244D+03
 Optimization completed.
 SCF Done:  E(RHF) =  -994.188108144     A.U. after   10 cycles
 E2 =    -0.6470885713D+00 EUMP2 =    -0.99483519671543D+03
 SCF Done:  E(RHF) =  -994.310652634     A.U. after   10 cycles
 E2 =    -0.6489133003D+00 EUMP2 =    -0.99495956593468D+03
 SCF Done:  E(RHF) =  -994.394031352     A.U. after   11 cycles
 E2 =    -0.6509793327D+00 EUMP2 =    -0.99504501068498D+03
 SCF Done:  E(RHF) =  -994.449674972     A.U. after   11 cycles
 E2 =    -0.6532500769D+00 EUMP2 =    -0.99510292504913D+03
 SCF Done:  E(RHF) =  -994.485595595     A.U. after   11 cycles
 E2 =    -0.6556988167D+00 EUMP2 =    -0.99514129441168D+03
 SCF Done:  E(RHF) =  -994.507498347     A.U. after   11 cycles
 E2 =    -0.6583007033D+00 EUMP2 =    -0.99516579905022D+03
 SCF Done:  E(RHF) =  -994.519502033     A.U. after   11 cycles
 E2 =    -0.6610248224D+00 EUMP2 =    -0.99518052685504D+03
 SCF Done:  E(RHF) =  -994.524615284     A.U. after   11 cycles
 E2 =    -0.6638283808D+00 EUMP2 =    -0.99518844366521D+03
 E2 =    -0.6666543508D+00 EUMP2 =    -0.99519171393300D+03
 E2 =    -0.6694314169D+00 EUMP2 =    -0.99519192356402D+03
 E2 =    -0.6720738999D+00 EUMP2 =    -0.99519023326883D+03
 E2 =    -0.6744823252D+00 EUMP2 =    -0.99518748199476D+03
 E2 =    -0.6765483060D+00 EUMP2 =    -0.99518425732428D+03
 E2 =    -0.6781665498D+00 EUMP2 =    -0.99518094635166D+03
 E2 =    -0.6792529597D+00 EUMP2 =    -0.99517777525538D+03
 E2 =    -0.6797636031D+00 EUMP2 =    -0.99517484000800D+03
 E2 =    -0.6797072085D+00 EUMP2 =    -0.99517212645596D+03
 E2 =    -0.6791455554D+00 EUMP2 =    -0.99516951715985D+03
 E2 =    -0.6781811925D+00 EUMP2 =    -0.99516678487727D+03
 SCF Done:  E(RHF) =  -994.486638556     A.U. after   11 cycles
 E2 =    -0.6769373463D+00 EUMP2 =    -0.99516357590194D+03
 SCF Done:  E(RHF) =  -994.483850255     A.U. after   11 cycles
 E2 =    -0.6755373694D+00 EUMP2 =    -0.99515938762452D+03
 SCF Done:  E(RHF) =  -994.479452941     A.U. after   11 cycles
 E2 =    -0.6740896551D+00 EUMP2 =    -0.99515354259634D+03
 SCF Done:  E(RHF) =  -994.472477169     A.U. after   11 cycles
 E2 =    -0.6726801987D+00 EUMP2 =    -0.99514515736794D+03
 SCF Done:  E(RHF) =  -994.461729337     A.U. after   11 cycles
 E2 =    -0.6713713967D+00 EUMP2 =    -0.99513310073382D+03
 SCF Done:  E(RHF) =  -994.445730488     A.U. after   10 cycles
 E2 =    -0.6702041167D+00 EUMP2 =    -0.99511593460462D+03
 SCF Done:  E(RHF) =  -994.422630345     A.U. after   10 cycles
 E2 =    -0.6692008829D+00 EUMP2 =    -0.99509183122799D+03
 SCF Done:  E(RHF) =  -994.390090415     A.U. after   10 cycles
 E2 =    -0.6683702600D+00 EUMP2 =    -0.99505846067533D+03
 SCF Done:  E(RHF) =  -994.345126620     A.U. after   11 cycles
 E2 =    -0.6677121348D+00 EUMP2 =    -0.99501283875531D+03
    -- Stationary point found.
 SCF Done:  E(RHF) =  -994.283899454     A.U. after   11 cycles
 E2 =    -0.6672234328D+00 EUMP2 =    -0.99495112288724D+03
 Optimization completed.
    -- Stationary point found.

                         Standard orientation:
 ---------------------------------------------------------------------
 Center     Atomic      Atomic             Coordinates (Angstroms)
 Number     Number       Type             X           Y           Z
 ---------------------------------------------------------------------
      1          8           0       -1.116913   -0.500858    0.000000
      2         17           0        0.020384   -1.741100   -0.000000
      3         17           0        0.505222    1.908668   -0.000000
      4          1           0       -0.000000    1.158209    0.000000
 ---------------------------------------------------------------------

 The electronic state is 1-A'.
 Alpha  occ. eigenvalues -- -104.64711-104.62847 -20.30343 -10.39455 -10.34841
 Alpha  occ. eigenvalues --   -7.86539  -7.85651  -7.85649  -7.81540  -7.81369
 Alpha  occ. eigenvalues --   -7.81368  -1.05807  -1.03798  -0.76471  -0.52681
 Alpha  occ. eigenvalues --   -0.32450  -0.32423  -0.30999  -0.30890  -0.29827
 Alpha  occ. eigenvalues --   -0.15994  -0.15769
 Alpha virt. eigenvalues --    0.15141   0.20877   0.22288   0.23101   0.24501
 Alpha virt. eigenvalues --    0.26391   0.26977   0.30841   0.33093   0.36806
 Alpha virt. eigenvalues --    0.37226   0.39836   0.40303   0.46508   0.47842

 Mulliken charges:
               1
     1  O   -0.866991
     2  Cl  -0.124099
     3  Cl  -0.568934
     4  H    0.560024
 Sum of Mulliken charges =  -1.00000

 Dipole moment (field-independent basis, Debye):
    X=              2.5406    Y=              2.6234    Z=             -0.0000  Tot=              3.6520
 Quadrupole moment (field-independent basis, Debye-Ang):
   XX=            -39.8106   YY=            -44.9979   ZZ=            -35.8838
   XY=             -2.7490   XZ=              0.0000   YZ=              0.0000

 Normal termination of Gaussian 16 at Mon Nov 15 07:52:15 2021.
