 Gaussian 16, Revision B.01,
 Gaussian 16:  ES64L-G16RevB.01 20-Dec-2017

 ----------------------------------------------------
 #p pop=NBO SP NoSymm mp2/aug-cc-pvtz density=current
 ----------------------------------------------------

 -----
 title
 -----
 Symbolic Z-matrix:
 Charge = -1 Multiplicity = 1

                          Input orientation:
 ---------------------------------------------------------------------
 Center     Atomic      Atomic             Coordinates (Angstroms)
 Number     Number       Type             X           Y           Z
 ---------------------------------------------------------------------
      1          8           0        0.000000    0.000000    0.000000
      2         17           0        1.682749    0.000000    0.000000
      3         17           0       -0.679570   -2.824062    0.000000
      4          1           0       -0.327540   -1.361146    0.000000
 ---------------------------------------------------------------------

 SCF Done:  E(RHF) =  -994.492419247     A.U. after   14 cycles
 E2 =    -0.6797072023D+00 EUMP2 =    -0.99517212644977D+03

 Alpha  occ. eigenvalues -- -104.67402-104.61119 -20.37872 -10.39384 -10.33627
 Alpha  occ. eigenvalues --   -7.86093  -7.85881  -7.85876  -7.80278  -7.80205
 Alpha  occ. eigenvalues --   -7.80204  -1.12110  -0.86508  -0.81759  -0.44090
 Alpha  occ. eigenvalues --   -0.36924  -0.36047  -0.30081  -0.25335  -0.25275
 Alpha  occ. eigenvalues --   -0.21399  -0.20808
 Alpha virt. eigenvalues --    0.16299   0.19934   0.22709   0.24326   0.25653
 Alpha virt. eigenvalues --    0.26116   0.26598   0.31560   0.33334   0.34622
 Alpha virt. eigenvalues --    0.34875   0.35799   0.38281   0.47144   0.47355

 Mulliken charges:
               1
     1  O   -0.636319
     2  Cl  -0.030002
     3  Cl  -0.562652
     4  H    0.228973
 Sum of Mulliken charges =  -1.00000

 Dipole moment (field-independent basis, Debye):
    X=             -0.1709    Y=              6.0279    Z=              0.0000  Tot=              6.0303
 Quadrupole moment (field-independent basis, Debye-Ang):
   XX=            -39.9634   YY=            -55.7521   ZZ=            -36.4401
   XY=             -4.9313   XZ=             -0.0000   YZ=             -0.0000

 Summary of Natural Population Analysis:

                                       Natural Population
                Natural  -----------------------------------------------
    Atom  No    Charge         Core      Valence    Rydberg      Total
 -----------------------------------------------------------------------
      O    1   -0.86196      1.99986     6.74652    0.11558     8.86196
     Cl    2    0.09649      9.99977     6.74180    0.16194    16.90351
     Cl    3   -0.59318      9.99975     7.45140    0.14203    17.59318
      H    4    0.35865      0.00000     0.61703    0.02433     0.64135
 =======================================================================
   * Total *   -1.00000     21.99937    21.55675    0.44388    44.00000

 Normal termination of Gaussian 16 at Fri Oct  8 12:26:12 2021.
