 Gaussian 16, Revision B.01,
 Gaussian 16:  ES64L-G16RevB.01 20-Dec-2017

 ----------------------------------------------------
 #p pop=NBO SP NoSymm mp2/aug-cc-pvtz density=current
 ----------------------------------------------------

 -----
 title
 -----
 Symbolic Z-matrix:
 Charge = -1 Multiplicity = 1

                          Input orientation:
 ---------------------------------------------------------------------
 Center     Atomic      Atomic             Coordinates (Angstroms)
 Number     Number       Type             X           Y           Z
 ---------------------------------------------------------------------
      1          8           0        0.000000    0.000000    0.000000
      2         17           0        1.682749    0.000000    0.000000
      3         17           0       -0.679570   -2.824062    0.000000
      4          1           0       -0.233957   -0.972247    0.000000
 ---------------------------------------------------------------------

 SCF Done:  E(RHF) =  -994.525059582     A.U. after   13 cycles
 E2 =    -0.6666543564D+00 EUMP2 =    -0.99519171393860D+03

 Alpha  occ. eigenvalues -- -104.72489-104.54684 -20.45070 -10.44440 -10.27173
 Alpha  occ. eigenvalues --   -7.91157  -7.90896  -7.90886  -7.73790  -7.73774
 Alpha  occ. eigenvalues --   -7.73773  -1.22311  -0.89004  -0.78657  -0.53535
 Alpha  occ. eigenvalues --   -0.43486  -0.42689  -0.30257  -0.27374  -0.20338
 Alpha  occ. eigenvalues --   -0.19497  -0.19496
 Alpha virt. eigenvalues --    0.16085   0.18583   0.22574   0.23495   0.25849
 Alpha virt. eigenvalues --    0.27332   0.27553   0.29428   0.31005   0.32594
 Alpha virt. eigenvalues --    0.33666   0.34997   0.38709   0.45088   0.46232

 Mulliken charges:
               1
     1  O   -0.485066
     2  Cl   0.042391
     3  Cl  -0.844262
     4  H    0.286937
 Sum of Mulliken charges =  -1.00000

 Dipole moment (field-independent basis, Debye):
    X=              1.5621    Y=              9.6309    Z=             -0.0000  Tot=              9.7568
 Quadrupole moment (field-independent basis, Debye-Ang):
   XX=            -38.9191   YY=            -66.7490   ZZ=            -36.6656
   XY=             -7.6281   XZ=             -0.0000   YZ=              0.0000

 Summary of Natural Population Analysis:

                                       Natural Population
                Natural  -----------------------------------------------
    Atom  No    Charge         Core      Valence    Rydberg      Total
 -----------------------------------------------------------------------
      O    1   -0.76090      1.99967     6.65152    0.10970     8.76090
     Cl    2    0.15308      9.99981     6.70201    0.14509    16.84692
     Cl    3   -0.86614     10.00003     7.72038    0.14573    17.86614
      H    4    0.47395      0.00000     0.49817    0.02788     0.52605
 =======================================================================
   * Total *   -1.00000     21.99952    21.57208    0.42840    44.00000

 Normal termination of Gaussian 16 at Fri Oct  8 12:24:08 2021.
