 Gaussian 16, Revision B.01,
 Gaussian 16:  ES64L-G16RevB.01 20-Dec-2017

 ----------------------------------------------------
 #p pop=NBO SP NoSymm mp2/aug-cc-pvtz density=current
 ----------------------------------------------------

 -----
 title
 -----
 Symbolic Z-matrix:
 Charge = -1 Multiplicity = 1

                          Input orientation:
 ---------------------------------------------------------------------
 Center     Atomic      Atomic             Coordinates (Angstroms)
 Number     Number       Type             X           Y           Z
 ---------------------------------------------------------------------
      1          8           0        0.000000    0.000000    0.000000
      2         17           0        1.682749    0.000000    0.000000
      3         17           0       -0.679570   -2.824062    0.000000
      4          1           0       -0.210561   -0.875022    0.000000
 ---------------------------------------------------------------------

 SCF Done:  E(RHF) =  -994.519502033     A.U. after   13 cycles
 E2 =    -0.6610248264D+00 EUMP2 =    -0.99518052685897D+03

 Alpha  occ. eigenvalues -- -104.73375-104.53793 -20.45545 -10.45316 -10.26276
 Alpha  occ. eigenvalues --   -7.92034  -7.91765  -7.91754  -7.72889  -7.72879
 Alpha  occ. eigenvalues --   -7.72879  -1.25439  -0.90692  -0.77621  -0.56586
 Alpha  occ. eigenvalues --   -0.44665  -0.43887  -0.31204  -0.28357  -0.19507
 Alpha  occ. eigenvalues --   -0.18657  -0.18654
 Alpha virt. eigenvalues --    0.15925   0.18311   0.22561   0.23301   0.25972
 Alpha virt. eigenvalues --    0.27511   0.27757   0.28766   0.30768   0.32089
 Alpha virt. eigenvalues --    0.33408   0.34879   0.39187   0.44355   0.46110

 Mulliken charges:
               1
     1  O   -0.399942
     2  Cl   0.058165
     3  Cl  -0.888297
     4  H    0.230074
 Sum of Mulliken charges =  -1.00000

 Dipole moment (field-independent basis, Debye):
    X=              1.8777    Y=             10.2240    Z=              0.0000  Tot=             10.3950
 Quadrupole moment (field-independent basis, Debye-Ang):
   XX=            -38.6561   YY=            -68.5022   ZZ=            -36.6603
   XY=             -8.0593   XZ=              0.0000   YZ=             -0.0000

 Summary of Natural Population Analysis:

                                       Natural Population
                Natural  -----------------------------------------------
    Atom  No    Charge         Core      Valence    Rydberg      Total
 -----------------------------------------------------------------------
      O    1   -0.71848      1.99958     6.61163    0.10726     8.71848
     Cl    2    0.16113      9.99984     6.69576    0.14326    16.83887
     Cl    3   -0.91498     10.00007     7.76763    0.14728    17.91498
      H    4    0.47232      0.00000     0.49913    0.02855     0.52768
 =======================================================================
   * Total *   -1.00000     21.99950    21.57415    0.42635    44.00000

 Normal termination of Gaussian 16 at Fri Oct  8 12:23:37 2021.
