 Gaussian 09, Revision E.01,
 Gaussian 09:  ES64L-G09RevE.01 30-Nov-2015

 ----------------------------------------------------
 #p pop=NBO SP NoSymm mp2/aug-cc-pvtz density=current
 ----------------------------------------------------

 -----
 title
 -----
 Symbolic Z-matrix:
 Charge = -1 Multiplicity = 1

                          Input orientation:
 ---------------------------------------------------------------------
 Center     Atomic      Atomic             Coordinates (Angstroms)
 Number     Number       Type             X           Y           Z
 ---------------------------------------------------------------------
      1          8           0        0.000000    0.000000    0.000000
      2          1           0        0.960788    0.000000    0.000000
      3         35           0       -0.662564   -3.188507    0.000000
      4          1           0       -0.233969   -1.125948    0.000000
 ---------------------------------------------------------------------

 SCF Done:  E(RHF) =  -2648.58554824     A.U. after   11 cycles
 E2 =    -0.5278765470D+00 EUMP2 =    -0.26491134247899D+04

 Alpha  occ. eigenvalues -- -489.75160 -64.89186 -58.24639 -58.24632 -58.24631
 Alpha  occ. eigenvalues --  -20.37717  -9.56432  -7.17212  -7.17155  -7.17151
 Alpha  occ. eigenvalues --   -2.91387  -2.91360  -2.91355  -2.91288  -2.91288
 Alpha  occ. eigenvalues --   -1.12401  -0.72470  -0.47793  -0.38459  -0.30990
 Alpha  occ. eigenvalues --   -0.17608  -0.17125  -0.17076
 Alpha virt. eigenvalues --    0.13948   0.17349   0.23216   0.24006   0.24565
 Alpha virt. eigenvalues --    0.27876   0.30417   0.30453   0.33458   0.35260
 Alpha virt. eigenvalues --    0.40320   0.41637   0.41916   0.46403   0.47622

 Mulliken charges:
               1
     1  O   -0.589370
     2  H    0.166030
     3  Br  -0.850644
     4  H    0.273984
 Sum of Mulliken charges =  -1.00000

 Dipole moment (field-independent basis, Debye):
    X=              3.6135    Y=             11.3833    Z=             -0.0000  Tot=             11.9431
 Quadrupole moment (field-independent basis, Debye-Ang):
   XX=            -30.6979   YY=            -70.7095   ZZ=            -31.6635
   XY=             -7.7296   XZ=              0.0000   YZ=             -0.0000

 Summary of Natural Population Analysis:

                                       Natural Population
                Natural  -----------------------------------------------
    Atom  No    Charge         Core      Valence    Rydberg      Total
 -----------------------------------------------------------------------
      O    1   -1.03631      1.99970     6.92906    0.10755     9.03631
      H    2    0.43397      0.00000     0.55309    0.01294     0.56603
     Br    3   -0.86622     27.98810     7.72514    0.15299    35.86622
      H    4    0.46853      0.00000     0.50942    0.02205     0.53147
 =======================================================================
   * Total *   -1.00003     29.98780    15.71671    0.29552    46.00003

 Normal termination of Gaussian 09 at Tue Oct 12 14:17:29 2021.
