 Gaussian 09, Revision E.01,
 Gaussian 09:  ES64L-G09RevE.01 30-Nov-2015

 ----------------------------------------------------
 #p pop=NBO SP NoSymm mp2/aug-cc-pvtz density=current
 ----------------------------------------------------

 -----
 title
 -----
 Symbolic Z-matrix:
 Charge = -1 Multiplicity = 1

                          Input orientation:
 ---------------------------------------------------------------------
 Center     Atomic      Atomic             Coordinates (Angstroms)
 Number     Number       Type             X           Y           Z
 ---------------------------------------------------------------------
      1          8           0        0.000000    0.000000    0.000000
      2          1           0        0.960788    0.000000    0.000000
      3         35           0       -0.662564   -3.188507    0.000000
      4          1           0       -0.244142   -1.174902    0.000000
 ---------------------------------------------------------------------

 SCF Done:  E(RHF) =  -2648.57631420     A.U. after   12 cycles
 E2 =    -0.5306275001D+00 EUMP2 =    -0.26491069417004D+04

 Alpha  occ. eigenvalues -- -489.75619 -64.89645 -58.25099 -58.25089 -58.25088
 Alpha  occ. eigenvalues --  -20.37074  -9.56890  -7.17681  -7.17607  -7.17603
 Alpha  occ. eigenvalues --   -2.91860  -2.91825  -2.91820  -2.91732  -2.91732
 Alpha  occ. eigenvalues --   -1.11090  -0.72976  -0.46408  -0.37389  -0.30126
 Alpha  occ. eigenvalues --   -0.17945  -0.17531  -0.17479
 Alpha virt. eigenvalues --    0.14090   0.17305   0.23154   0.23930   0.24449
 Alpha virt. eigenvalues --    0.28004   0.30581   0.30741   0.33322   0.35415
 Alpha virt. eigenvalues --    0.40479   0.41838   0.41953   0.46398   0.47281

 Mulliken charges:
               1
     1  O   -0.599227
     2  H    0.163796
     3  Br  -0.821866
     4  H    0.257297
 Sum of Mulliken charges =  -1.00000

 Dipole moment (field-independent basis, Debye):
    X=              3.5124    Y=             10.9936    Z=              0.0000  Tot=             11.5411
 Quadrupole moment (field-independent basis, Debye-Ang):
   XX=            -30.6160   YY=            -69.3799   ZZ=            -31.6365
   XY=             -7.4788   XZ=             -0.0000   YZ=             -0.0000

 Summary of Natural Population Analysis:

                                       Natural Population
                Natural  -----------------------------------------------
    Atom  No    Charge         Core      Valence    Rydberg      Total
 -----------------------------------------------------------------------
      O    1   -1.04727      1.99971     6.93863    0.10893     9.04727
      H    2    0.43149      0.00000     0.55515    0.01336     0.56851
     Br    3   -0.83751     27.98799     7.69725    0.15227    35.83751
      H    4    0.45324      0.00000     0.52467    0.02209     0.54676
 =======================================================================
   * Total *   -1.00005     29.98770    15.71570    0.29665    46.00005

 Normal termination of Gaussian 09 at Tue Oct 12 14:17:40 2021.
