 Gaussian 09, Revision E.01,
 Gaussian 09:  ES64L-G09RevE.01 30-Nov-2015

 ----------------------------------------------------
 #p pop=NBO SP NoSymm mp2/aug-cc-pvtz density=current
 ----------------------------------------------------

 -----
 title
 -----
 Symbolic Z-matrix:
 Charge = -1 Multiplicity = 1

                          Input orientation:
 ---------------------------------------------------------------------
 Center     Atomic      Atomic             Coordinates (Angstroms)
 Number     Number       Type             X           Y           Z
 ---------------------------------------------------------------------
      1          8           0        0.000000    0.000000    0.000000
      2          1           0        0.960788    0.000000    0.000000
      3         35           0       -0.662564   -3.188507    0.000000
      4          1           0       -0.172934   -0.832222    0.000000
 ---------------------------------------------------------------------

 SCF Done:  E(RHF) =  -2648.59391156     A.U. after   11 cycles
 E2 =    -0.5120103890D+00 EUMP2 =    -0.26491059219466D+04

 Alpha  occ. eigenvalues -- -489.73492 -64.87514 -58.22963 -58.22962 -58.22960
 Alpha  occ. eigenvalues --  -20.38735  -9.54757  -7.15505  -7.15495  -7.15493
 Alpha  occ. eigenvalues --   -2.89669  -2.89666  -2.89665  -2.89653  -2.89653
 Alpha  occ. eigenvalues --   -1.21774  -0.70534  -0.57351  -0.43562  -0.34887
 Alpha  occ. eigenvalues --   -0.16046  -0.15562  -0.15524
 Alpha virt. eigenvalues --    0.13382   0.17342   0.23482   0.24240   0.25007
 Alpha virt. eigenvalues --    0.27270   0.28969   0.29379   0.34063   0.34906
 Alpha virt. eigenvalues --    0.39608   0.40711   0.41440   0.46471   0.48341

 Mulliken charges:
               1
     1  O   -0.414600
     2  H    0.173362
     3  Br  -0.958823
     4  H    0.200061
 Sum of Mulliken charges =  -1.00000

 Dipole moment (field-independent basis, Debye):
    X=              4.0431    Y=             12.9527    Z=              0.0000  Tot=             13.5691
 Quadrupole moment (field-independent basis, Debye-Ang):
   XX=            -30.8827   YY=            -75.8756   ZZ=            -31.6368
   XY=             -8.7142   XZ=             -0.0000   YZ=             -0.0000

 Summary of Natural Population Analysis:

                                       Natural Population
                Natural  -----------------------------------------------
    Atom  No    Charge         Core      Valence    Rydberg      Total
 -----------------------------------------------------------------------
      O    1   -0.92789      1.99961     6.82887    0.09942     8.92789
      H    2    0.43819      0.00000     0.54989    0.01192     0.56181
     Br    3   -0.97302     27.98847     7.82673    0.15781    35.97302
      H    4    0.46272      0.00000     0.51645    0.02084     0.53728
 =======================================================================
   * Total *   -1.00000     29.98808    15.72193    0.28999    46.00000

 Normal termination of Gaussian 09 at Tue Oct 12 14:16:22 2021.
