 Gaussian 09, Revision E.01,
 Gaussian 09:  ES64L-G09RevE.01 30-Nov-2015

 ----------------------------------------------------
 #p pop=NBO SP NoSymm mp2/aug-cc-pvtz density=current
 ----------------------------------------------------

 -----
 title
 -----
 Symbolic Z-matrix:
 Charge = -1 Multiplicity = 1

                          Input orientation:
 ---------------------------------------------------------------------
 Center     Atomic      Atomic             Coordinates (Angstroms)
 Number     Number       Type             X           Y           Z
 ---------------------------------------------------------------------
      1          8           0        0.000000    0.000000    0.000000
      2          1           0        0.960788    0.000000    0.000000
      3         35           0       -0.662564   -3.188507    0.000000
      4          1           0       -0.183106   -0.881177    0.000000
 ---------------------------------------------------------------------

 SCF Done:  E(RHF) =  -2648.60457264     A.U. after   11 cycles
 E2 =    -0.5144504595D+00 EUMP2 =    -0.26491190230995D+04

 Alpha  occ. eigenvalues -- -489.73669 -64.87693 -58.23142 -58.23141 -58.23139
 Alpha  occ. eigenvalues --  -20.38879  -9.54937  -7.15687  -7.15674  -7.15672
 Alpha  occ. eigenvalues --   -2.89850  -2.89847  -2.89844  -2.89831  -2.89831
 Alpha  occ. eigenvalues --   -1.19879  -0.70753  -0.55624  -0.42902  -0.34349
 Alpha  occ. eigenvalues --   -0.16245  -0.15741  -0.15700
 Alpha virt. eigenvalues --    0.13447   0.17370   0.23443   0.24221   0.24955
 Alpha virt. eigenvalues --    0.27362   0.29194   0.29580   0.34046   0.34855
 Alpha virt. eigenvalues --    0.39688   0.40833   0.41515   0.46429   0.48278

 Mulliken charges:
               1
     1  O   -0.467128
     2  H    0.169833
     3  Br  -0.947500
     4  H    0.244794
 Sum of Mulliken charges =  -1.00000

 Dipole moment (field-independent basis, Debye):
    X=              3.9892    Y=             12.7709    Z=             -0.0000  Tot=             13.3795
 Quadrupole moment (field-independent basis, Debye-Ang):
   XX=            -30.8863   YY=            -75.3158   ZZ=            -31.6634
   XY=             -8.6057   XZ=              0.0000   YZ=              0.0000

 Summary of Natural Population Analysis:

                                       Natural Population
                Natural  -----------------------------------------------
    Atom  No    Charge         Core      Valence    Rydberg      Total
 -----------------------------------------------------------------------
      O    1   -0.95229      1.99964     6.85225    0.10040     8.95229
      H    2    0.43898      0.00000     0.54909    0.01193     0.56102
     Br    3   -0.96351     27.98845     7.81804    0.15702    35.96351
      H    4    0.47682      0.00000     0.50223    0.02094     0.52318
 =======================================================================
   * Total *   -1.00000     29.98809    15.72162    0.29029    46.00000

 Normal termination of Gaussian 09 at Tue Oct 12 14:16:33 2021.
