 Gaussian 09, Revision E.01,
 Gaussian 09:  ES64L-G09RevE.01 30-Nov-2015

 ----------------------------------------------------
 #p pop=NBO SP NoSymm mp2/aug-cc-pvtz density=current
 ----------------------------------------------------

 -----
 title
 -----
 Symbolic Z-matrix:
 Charge = -1 Multiplicity = 1

                          Input orientation:
 ---------------------------------------------------------------------
 Center     Atomic      Atomic             Coordinates (Angstroms)
 Number     Number       Type             X           Y           Z
 ---------------------------------------------------------------------
      1          8           0        0.000000    0.000000    0.000000
      2          1           0        0.960788    0.000000    0.000000
      3         35           0       -0.662564   -3.188507    0.000000
      4          1           0       -0.213624   -1.028039    0.000000
 ---------------------------------------------------------------------

 SCF Done:  E(RHF) =  -2648.60141406     A.U. after   11 cycles
 E2 =    -0.5223468386D+00 EUMP2 =    -0.26491237609002D+04

 Alpha  occ. eigenvalues -- -489.74419 -64.88446 -58.23895 -58.23893 -58.23892
 Alpha  occ. eigenvalues --  -20.38584  -9.55692  -7.16456  -7.16423  -7.16419
 Alpha  occ. eigenvalues --   -2.90623  -2.90610  -2.90605  -2.90569  -2.90569
 Alpha  occ. eigenvalues --   -1.15125  -0.71638  -0.50733  -0.40463  -0.32503
 Alpha  occ. eigenvalues --   -0.16988  -0.16455  -0.16410
 Alpha virt. eigenvalues --    0.13709   0.17394   0.23317   0.24121   0.24754
 Alpha virt. eigenvalues --    0.27650   0.29917   0.30111   0.33724   0.35011
 Alpha virt. eigenvalues --    0.40023   0.41273   0.41771   0.46395   0.47990

 Mulliken charges:
               1
     1  O   -0.565804
     2  H    0.167513
     3  Br  -0.898287
     4  H    0.296578
 Sum of Mulliken charges =  -1.00000

 Dipole moment (field-independent basis, Debye):
    X=              3.7883    Y=             12.0460    Z=             -0.0000  Tot=             12.6277
 Quadrupole moment (field-independent basis, Debye-Ang):
   XX=            -30.8176   YY=            -72.9505   ZZ=            -31.6914
   XY=             -8.1535   XZ=             -0.0000   YZ=              0.0000

 Summary of Natural Population Analysis:

                                       Natural Population
                Natural  -----------------------------------------------
    Atom  No    Charge         Core      Valence    Rydberg      Total
 -----------------------------------------------------------------------
      O    1   -1.00919      1.99969     6.90496    0.10455     9.00919
      H    2    0.43763      0.00000     0.55006    0.01231     0.56237
     Br    3   -0.91521     27.98829     7.77241    0.15450    35.91521
      H    4    0.48677      0.00000     0.49154    0.02169     0.51323
 =======================================================================
   * Total *   -1.00000     29.98798    15.71897    0.29305    46.00000

 Normal termination of Gaussian 09 at Tue Oct 12 14:17:06 2021.
