 Gaussian 09, Revision E.01,
 Gaussian 09:  ES64L-G09RevE.01 30-Nov-2015

 ----------------------------------------------------
 #p pop=NBO SP NoSymm mp2/aug-cc-pvtz density=current
 ----------------------------------------------------

 -----
 title
 -----
 Symbolic Z-matrix:
 Charge = -1 Multiplicity = 1

                          Input orientation:
 ---------------------------------------------------------------------
 Center     Atomic      Atomic             Coordinates (Angstroms)
 Number     Number       Type             X           Y           Z
 ---------------------------------------------------------------------
      1          8           0        0.000000    0.000000    0.000000
      2          1           0        0.960788    0.000000    0.000000
      3         35           0       -0.662564   -3.188507    0.000000
      4          1           0       -0.162761   -0.783268    0.000000
 ---------------------------------------------------------------------

 SCF Done:  E(RHF) =  -2648.57309129     A.U. after   11 cycles
 E2 =    -0.5096941767D+00 EUMP2 =    -0.26490827854655D+04

 Alpha  occ. eigenvalues -- -489.73342 -64.87363 -58.22812 -58.22811 -58.22809
 Alpha  occ. eigenvalues --  -20.38488  -9.54605  -7.15352  -7.15342  -7.15342
 Alpha  occ. eigenvalues --   -2.89516  -2.89513  -2.89512  -2.89502  -2.89502
 Alpha  occ. eigenvalues --   -1.23879  -0.70344  -0.59098  -0.44159  -0.35398
 Alpha  occ. eigenvalues --   -0.15868  -0.15408  -0.15371
 Alpha virt. eigenvalues --    0.13325   0.17306   0.23518   0.24252   0.25054
 Alpha virt. eigenvalues --    0.27178   0.28750   0.29177   0.34021   0.35004
 Alpha virt. eigenvalues --    0.39536   0.40599   0.41373   0.46532   0.48391

 Mulliken charges:
               1
     1  O   -0.361881
     2  H    0.178296
     3  Br  -0.968013
     4  H    0.151598
 Sum of Mulliken charges =  -1.00000

 Dipole moment (field-independent basis, Debye):
    X=              4.0919    Y=             13.1101    Z=              0.0000  Tot=             13.7339
 Quadrupole moment (field-independent basis, Debye-Ang):
   XX=            -30.8674   YY=            -76.3401   ZZ=            -31.6024
   XY=             -8.8051   XZ=             -0.0000   YZ=             -0.0000

 Summary of Natural Population Analysis:

                                       Natural Population
                Natural  -----------------------------------------------
    Atom  No    Charge         Core      Valence    Rydberg      Total
 -----------------------------------------------------------------------
      O    1   -0.89953      1.99956     6.80130    0.09867     8.89953
      H    2    0.43678      0.00000     0.55126    0.01196     0.56322
     Br    3   -0.97990     27.98848     7.83287    0.15854    35.97990
      H    4    0.44265      0.00000     0.53646    0.02089     0.55735
 =======================================================================
   * Total *   -1.00000     29.98804    15.72189    0.29006    46.00000

 Normal termination of Gaussian 09 at Tue Oct 12 14:16:10 2021.
