 Gaussian 09, Revision E.01,
 Gaussian 09:  ES64L-G09RevE.01 30-Nov-2015

 ----------------------------------------------------
 #p pop=NBO SP NoSymm mp2/aug-cc-pvtz density=current
 ----------------------------------------------------

 -----
 title
 -----
 Symbolic Z-matrix:
 Charge = -1 Multiplicity = 1

                          Input orientation:
 ---------------------------------------------------------------------
 Center     Atomic      Atomic             Coordinates (Angstroms)
 Number     Number       Type             X           Y           Z
 ---------------------------------------------------------------------
      1          8           0        0.000000    0.000000    0.000000
      2          1           0        0.960788    0.000000    0.000000
      3         35           0       -0.662564   -3.188507    0.000000
      4          1           0       -0.305177   -1.468628    0.000000
 ---------------------------------------------------------------------

 SCF Done:  E(RHF) =  -2648.52976547     A.U. after   12 cycles
 E2 =    -0.5429451661D+00 EUMP2 =    -0.26490727106346D+04

 Alpha  occ. eigenvalues -- -489.79595 -64.93615 -58.29087 -58.29049 -58.29049
 Alpha  occ. eigenvalues --  -20.30832  -9.60866  -7.21751  -7.21532  -7.21528
 Alpha  occ. eigenvalues --   -2.95974  -2.95859  -2.95854  -2.95581  -2.95581
 Alpha  occ. eigenvalues --   -1.03220  -0.77404  -0.38903  -0.32733  -0.23644
 Alpha  occ. eigenvalues --   -0.20972  -0.20790  -0.19053
 Alpha virt. eigenvalues --    0.15212   0.16670   0.22535   0.23198   0.23488
 Alpha virt. eigenvalues --    0.28840   0.32054   0.32636   0.32714   0.36567
 Alpha virt. eigenvalues --    0.40902   0.41658   0.42880   0.44964   0.45981

 Mulliken charges:
               1
     1  O   -0.727158
     2  H    0.132996
     3  Br  -0.589108
     4  H    0.183270
 Sum of Mulliken charges =  -1.00000

 Dipole moment (field-independent basis, Debye):
    X=              2.7549    Y=              8.0221    Z=             -0.0000  Tot=              8.4819
 Quadrupole moment (field-independent basis, Debye-Ang):
   XX=            -29.9195   YY=            -59.3414   ZZ=            -31.3837
   XY=             -5.5771   XZ=              0.0000   YZ=              0.0000

 Summary of Natural Population Analysis:

                                       Natural Population
                Natural  -----------------------------------------------
    Atom  No    Charge         Core      Valence    Rydberg      Total
 -----------------------------------------------------------------------
      O    1   -1.11663      1.99972     6.99871    0.11821     9.11663
      H    2    0.41227      0.00000     0.57022    0.01751     0.58773
     Br    3   -0.63280     27.98738     7.49847    0.14695    35.63280
      H    4    0.33691      0.00000     0.64072    0.02237     0.66309
 =======================================================================
   * Total *   -1.00025     29.98710    15.70811    0.30504    46.00025

 Normal termination of Gaussian 09 at Tue Oct 12 14:18:49 2021.
