 Gaussian 09, Revision E.01,
 Gaussian 09:  ES64L-G09RevE.01 30-Nov-2015

 ----------------------------------------------------
 #p pop=NBO SP NoSymm mp2/aug-cc-pvtz density=current
 ----------------------------------------------------

 -----
 title
 -----
 Symbolic Z-matrix:
 Charge = -1 Multiplicity = 1

                          Input orientation:
 ---------------------------------------------------------------------
 Center     Atomic      Atomic             Coordinates (Angstroms)
 Number     Number       Type             X           Y           Z
 ---------------------------------------------------------------------
      1          8           0        0.000000    0.000000    0.000000
      2          1           0        0.960788    0.000000    0.000000
      3         35           0       -0.662564   -3.188507    0.000000
      4          1           0       -0.254314   -1.223856    0.000000
 ---------------------------------------------------------------------

 SCF Done:  E(RHF) =  -2648.56698181     A.U. after   12 cycles
 E2 =    -0.5333015014D+00 EUMP2 =    -0.26491002833145D+04

 Alpha  occ. eigenvalues -- -489.76143 -64.90167 -58.25624 -58.25610 -58.25609
 Alpha  occ. eigenvalues --  -20.36294  -9.57412  -7.18215  -7.18122  -7.18118
 Alpha  occ. eigenvalues --   -2.92399  -2.92354  -2.92349  -2.92237  -2.92237
 Alpha  occ. eigenvalues --   -1.09786  -0.73548  -0.45065  -0.36319  -0.29186
 Alpha  occ. eigenvalues --   -0.18286  -0.17987  -0.17932
 Alpha virt. eigenvalues --    0.14247   0.17244   0.23081   0.23840   0.24319
 Alpha virt. eigenvalues --    0.28143   0.30766   0.31043   0.33183   0.35587
 Alpha virt. eigenvalues --    0.40638   0.41947   0.42048   0.46378   0.46792

 Mulliken charges:
               1
     1  O   -0.611339
     2  H    0.160481
     3  Br  -0.789781
     4  H    0.240639
 Sum of Mulliken charges =  -1.00000

 Dipole moment (field-independent basis, Debye):
    X=              3.4024    Y=             10.5664    Z=             -0.0000  Tot=             11.1007
 Quadrupole moment (field-independent basis, Debye-Ang):
   XX=            -30.5206   YY=            -67.9203   ZZ=            -31.6022
   XY=             -7.2036   XZ=             -0.0000   YZ=              0.0000

 Summary of Natural Population Analysis:

                                       Natural Population
                Natural  -----------------------------------------------
    Atom  No    Charge         Core      Valence    Rydberg      Total
 -----------------------------------------------------------------------
      O    1   -1.05722      1.99971     6.94723    0.11028     9.05722
      H    2    0.42868      0.00000     0.55746    0.01386     0.57132
     Br    3   -0.80648     27.98788     7.66706    0.15154    35.80648
      H    4    0.43495      0.00000     0.54301    0.02203     0.56505
 =======================================================================
   * Total *   -1.00007     29.98759    15.71477    0.29771    46.00007

 Normal termination of Gaussian 09 at Tue Oct 12 14:17:52 2021.
