 Gaussian 09, Revision E.01,
 Gaussian 09:  ES64L-G09RevE.01 30-Nov-2015

 ----------------------------------------------------
 #p pop=NBO SP NoSymm mp2/aug-cc-pvtz density=current
 ----------------------------------------------------

 -----
 title
 -----
 Symbolic Z-matrix:
 Charge = -1 Multiplicity = 1

                          Input orientation:
 ---------------------------------------------------------------------
 Center     Atomic      Atomic             Coordinates (Angstroms)
 Number     Number       Type             X           Y           Z
 ---------------------------------------------------------------------
      1          8           0        0.000000    0.000000    0.000000
      2          1           0        0.960788    0.000000    0.000000
      3         35           0       -0.662564   -3.188507    0.000000
      4          1           0       -0.264487   -1.272811    0.000000
 ---------------------------------------------------------------------

 SCF Done:  E(RHF) =  -2648.55796193     A.U. after   12 cycles
 E2 =    -0.5358299930D+00 EUMP2 =    -0.26490937919270D+04

 Alpha  occ. eigenvalues -- -489.76731 -64.90754 -58.26213 -58.26195 -58.26194
 Alpha  occ. eigenvalues --  -20.35385  -9.57998  -7.18815  -7.18700  -7.18696
 Alpha  occ. eigenvalues --   -2.93005  -2.92949  -2.92944  -2.92804  -2.92804
 Alpha  occ. eigenvalues --   -1.08478  -0.74189  -0.43753  -0.35296  -0.28170
 Alpha  occ. eigenvalues --   -0.18617  -0.18487  -0.18435
 Alpha virt. eigenvalues --    0.14419   0.17166   0.22995   0.23736   0.24175
 Alpha virt. eigenvalues --    0.28289   0.30978   0.31359   0.33041   0.35773
 Alpha virt. eigenvalues --    0.40790   0.41886   0.42260   0.46269   0.46339

 Mulliken charges:
               1
     1  O   -0.626964
     2  H    0.156192
     3  Br  -0.754574
     4  H    0.225346
 Sum of Mulliken charges =  -1.00000

 Dipole moment (field-independent basis, Debye):
    X=              3.2844    Y=             10.1053    Z=              0.0000  Tot=             10.6256
 Quadrupole moment (field-independent basis, Debye-Ang):
   XX=            -30.4138   YY=            -66.3466   ZZ=            -31.5624
   XY=             -6.9066   XZ=              0.0000   YZ=             -0.0000

 Summary of Natural Population Analysis:

                                       Natural Population
                Natural  -----------------------------------------------
    Atom  No    Charge         Core      Valence    Rydberg      Total
 -----------------------------------------------------------------------
      O    1   -1.06690      1.99971     6.95554    0.11165     9.06690
      H    2    0.42561      0.00000     0.55995    0.01444     0.57439
     Br    3   -0.77356     27.98778     7.63503    0.15076    35.77356
      H    4    0.41475      0.00000     0.56331    0.02194     0.58525
 =======================================================================
   * Total *   -1.00010     29.98749    15.71383    0.29878    46.00010

 Normal termination of Gaussian 09 at Tue Oct 12 14:18:03 2021.
