 Gaussian 09, Revision E.01,
 Gaussian 09:  ES64L-G09RevE.01 30-Nov-2015

 ----------------------------------------------------
 #p pop=NBO SP NoSymm mp2/aug-cc-pvtz density=current
 ----------------------------------------------------

 -----
 title
 -----
 Symbolic Z-matrix:
 Charge = -1 Multiplicity = 1

                          Input orientation:
 ---------------------------------------------------------------------
 Center     Atomic      Atomic             Coordinates (Angstroms)
 Number     Number       Type             X           Y           Z
 ---------------------------------------------------------------------
      1          8           0        0.000000    0.000000    0.000000
      2          1           0        0.960788    0.000000    0.000000
      3         35           0       -0.662564   -3.188507    0.000000
      4          1           0       -0.295005   -1.419673    0.000000
 ---------------------------------------------------------------------

 SCF Done:  E(RHF) =  -2648.53537704     A.U. after   12 cycles
 E2 =    -0.5417516659D+00 EUMP2 =    -0.26490771287041D+04

 Alpha  occ. eigenvalues -- -489.78826 -64.92845 -58.28314 -58.28281 -58.28280
 Alpha  occ. eigenvalues --  -20.32056  -9.60092  -7.20958  -7.20768  -7.20764
 Alpha  occ. eigenvalues --   -2.95173  -2.95074  -2.95069  -2.94831  -2.94831
 Alpha  occ. eigenvalues --   -1.04520  -0.76512  -0.40016  -0.33059  -0.24787
 Alpha  occ. eigenvalues --   -0.20307  -0.20188  -0.19134
 Alpha virt. eigenvalues --    0.15004   0.16819   0.22664   0.23347   0.23670
 Alpha virt. eigenvalues --    0.28722   0.31782   0.32370   0.32670   0.36372
 Alpha virt. eigenvalues --    0.40984   0.41622   0.42791   0.45199   0.46098

 Mulliken charges:
               1
     1  O   -0.697106
     2  H    0.139310
     3  Br  -0.633485
     4  H    0.191281
 Sum of Mulliken charges =  -1.00000

 Dipole moment (field-independent basis, Debye):
    X=              2.8934    Y=              8.5684    Z=              0.0000  Tot=              9.0437
 Quadrupole moment (field-independent basis, Debye-Ang):
   XX=            -30.0487   YY=            -61.1573   ZZ=            -31.4282
   XY=             -5.9233   XZ=             -0.0000   YZ=             -0.0000

 Summary of Natural Population Analysis:

                                       Natural Population
                Natural  -----------------------------------------------
    Atom  No    Charge         Core      Valence    Rydberg      Total
 -----------------------------------------------------------------------
      O    1   -1.10148      1.99972     6.98537    0.11639     9.10148
      H    2    0.41565      0.00000     0.56771    0.01664     0.58435
     Br    3   -0.66839     27.98748     7.53293    0.14798    35.66839
      H    4    0.35401      0.00000     0.62394    0.02204     0.64599
 =======================================================================
   * Total *   -1.00021     29.98720    15.70996    0.30305    46.00021

 Normal termination of Gaussian 09 at Tue Oct 12 14:18:38 2021.
