 Gaussian 09, Revision E.01,
 Gaussian 09:  ES64L-G09RevE.01 30-Nov-2015

 ----------------------------------------------------
 #p pop=NBO SP NoSymm mp2/aug-cc-pvtz density=current
 ----------------------------------------------------

 -----
 title
 -----
 Symbolic Z-matrix:
 Charge = -1 Multiplicity = 1

                          Input orientation:
 ---------------------------------------------------------------------
 Center     Atomic      Atomic             Coordinates (Angstroms)
 Number     Number       Type             X           Y           Z
 ---------------------------------------------------------------------
      1          8           0        0.000000    0.000000    0.000000
      2          1           0        0.960788    0.000000    0.000000
      3         35           0       -0.662564   -3.188507    0.000000
      4          1           0       -0.284832   -1.370719    0.000000
 ---------------------------------------------------------------------

 SCF Done:  E(RHF) =  -2648.54198980     A.U. after   12 cycles
 E2 =    -0.5401316646D+00 EUMP2 =    -0.26490821214646D+04

 Alpha  occ. eigenvalues -- -489.78082 -64.92102 -58.27568 -58.27540 -58.27539
 Alpha  occ. eigenvalues --  -20.33242  -9.59347  -7.20195  -7.20032  -7.20028
 Alpha  occ. eigenvalues --   -2.94401  -2.94318  -2.94313  -2.94109  -2.94109
 Alpha  occ. eigenvalues --   -1.05838  -0.75675  -0.41216  -0.33613  -0.25950
 Alpha  occ. eigenvalues --   -0.19668  -0.19575  -0.19064
 Alpha virt. eigenvalues --    0.14800   0.16953   0.22786   0.23488   0.23847
 Alpha virt. eigenvalues --    0.28586   0.31492   0.32026   0.32773   0.36171
 Alpha virt. eigenvalues --    0.40996   0.41666   0.42647   0.45473   0.46197

 Mulliken charges:
               1
     1  O   -0.670058
     2  H    0.145407
     3  Br  -0.676069
     4  H    0.200719
 Sum of Mulliken charges =  -1.00000

 Dipole moment (field-independent basis, Debye):
    X=              3.0286    Y=              9.1009    Z=             -0.0000  Tot=              9.5916
 Quadrupole moment (field-independent basis, Debye-Ang):
   XX=            -30.1755   YY=            -62.9427   ZZ=            -31.4737
   XY=             -6.2626   XZ=             -0.0000   YZ=             -0.0000

 Summary of Natural Population Analysis:

                                       Natural Population
                Natural  -----------------------------------------------
    Atom  No    Charge         Core      Valence    Rydberg      Total
 -----------------------------------------------------------------------
      O    1   -1.08842      1.99972     6.97402    0.11469     9.08842
      H    2    0.41903      0.00000     0.56514    0.01583     0.58097
     Br    3   -0.70400     27.98758     7.56746    0.14897    35.70400
      H    4    0.37322      0.00000     0.60490    0.02188     0.62678
 =======================================================================
   * Total *   -1.00017     29.98729    15.71151    0.30137    46.00017

 Normal termination of Gaussian 09 at Tue Oct 12 14:18:26 2021.
