 Gaussian 09, Revision E.01,
 Gaussian 09:  ES64L-G09RevE.01 30-Nov-2015

 ----------------------------------------------------
 #p pop=NBO SP NoSymm mp2/aug-cc-pvtz density=current
 ----------------------------------------------------

 -----
 title
 -----
 Symbolic Z-matrix:
 Charge = -1 Multiplicity = 1

                          Input orientation:
 ---------------------------------------------------------------------
 Center     Atomic      Atomic             Coordinates (Angstroms)
 Number     Number       Type             X           Y           Z
 ---------------------------------------------------------------------
      1          8           0        0.000000    0.000000    0.000000
      2          1           0        0.960788    0.000000    0.000000
      3         35           0       -0.662564   -3.188507    0.000000
      4          1           0       -0.223797   -1.076994    0.000000
 ---------------------------------------------------------------------

 SCF Done:  E(RHF) =  -2648.59414708     A.U. after   11 cycles
 E2 =    -0.5251029047D+00 EUMP2 =    -0.26491192499837D+04

 Alpha  occ. eigenvalues -- -489.74762 -64.88788 -58.24239 -58.24234 -58.24234
 Alpha  occ. eigenvalues --  -20.38220  -9.56034  -7.16806  -7.16762  -7.16758
 Alpha  occ. eigenvalues --   -2.90976  -2.90957  -2.90952  -2.90902  -2.90902
 Alpha  occ. eigenvalues --   -1.13738  -0.72026  -0.49231  -0.39492  -0.31780
 Alpha  occ. eigenvalues --   -0.17287  -0.16768  -0.16721
 Alpha virt. eigenvalues --    0.13821   0.17378   0.23269   0.24069   0.24666
 Alpha virt. eigenvalues --    0.27758   0.30179   0.30264   0.33592   0.35125
 Alpha virt. eigenvalues --    0.40166   0.41448   0.41851   0.46400   0.47838

 Mulliken charges:
               1
     1  O   -0.579407
     2  H    0.167193
     3  Br  -0.876083
     4  H    0.288297
 Sum of Mulliken charges =  -1.00000

 Dipole moment (field-independent basis, Debye):
    X=              3.7054    Y=             11.7341    Z=              0.0000  Tot=             12.3052
 Quadrupole moment (field-independent basis, Debye-Ang):
   XX=            -30.7653   YY=            -71.9003   ZZ=            -31.6821
   XY=             -7.9546   XZ=              0.0000   YZ=             -0.0000

 Summary of Natural Population Analysis:

                                       Natural Population
                Natural  -----------------------------------------------
    Atom  No    Charge         Core      Valence    Rydberg      Total
 -----------------------------------------------------------------------
      O    1   -1.02374      1.99970     6.91796    0.10608     9.02374
      H    2    0.43604      0.00000     0.55137    0.01259     0.56396
     Br    3   -0.89224     27.98820     7.75032    0.15372    35.89224
      H    4    0.47993      0.00000     0.49816    0.02191     0.52007
 =======================================================================
   * Total *   -1.00001     29.98790    15.71782    0.29430    46.00001

 Normal termination of Gaussian 09 at Tue Oct 12 14:17:17 2021.
