 Gaussian 09, Revision E.01,
 Gaussian 09:  ES64L-G09RevE.01 30-Nov-2015

 ----------------------------------------------------
 #p pop=NBO SP NoSymm mp2/aug-cc-pvtz density=current
 ----------------------------------------------------

 -----
 title
 -----
 Symbolic Z-matrix:
 Charge = -1 Multiplicity = 1

                          Input orientation:
 ---------------------------------------------------------------------
 Center     Atomic      Atomic             Coordinates (Angstroms)
 Number     Number       Type             X           Y           Z
 ---------------------------------------------------------------------
      1          8           0        0.000000    0.000000    0.000000
      2          1           0        0.960788    0.000000    0.000000
      3         35           0       -0.662564   -3.188507    0.000000
      4          1           0       -0.152589   -0.734314    0.000000
 ---------------------------------------------------------------------

 SCF Done:  E(RHF) =  -2648.53804859     A.U. after   11 cycles
 E2 =    -0.5075155616D+00 EUMP2 =    -0.26490455641555D+04

 Alpha  occ. eigenvalues -- -489.73215 -64.87235 -58.22685 -58.22683 -58.22681
 Alpha  occ. eigenvalues --  -20.38153  -9.54476  -7.15222  -7.15214  -7.15213
 Alpha  occ. eigenvalues --   -2.89388  -2.89386  -2.89382  -2.89373  -2.89372
 Alpha  occ. eigenvalues --   -1.26224  -0.70180  -0.60844  -0.44701  -0.35891
 Alpha  occ. eigenvalues --   -0.15710  -0.15274  -0.15238
 Alpha virt. eigenvalues --    0.13275   0.17263   0.23551   0.24258   0.25098
 Alpha virt. eigenvalues --    0.27084   0.28536   0.28983   0.33940   0.35117
 Alpha virt. eigenvalues --    0.39464   0.40496   0.41316   0.46610   0.48429

 Mulliken charges:
               1
     1  O   -0.318068
     2  H    0.183669
     3  Br  -0.975371
     4  H    0.109770
 Sum of Mulliken charges =  -1.00000

 Dipole moment (field-independent basis, Debye):
    X=              4.1366    Y=             13.2463    Z=              0.0000  Tot=             13.8772
 Quadrupole moment (field-independent basis, Debye-Ang):
   XX=            -30.8415   YY=            -76.7208   ZZ=            -31.5610
   XY=             -8.8805   XZ=             -0.0000   YZ=              0.0000

 Summary of Natural Population Analysis:

                                       Natural Population
                Natural  -----------------------------------------------
    Atom  No    Charge         Core      Valence    Rydberg      Total
 -----------------------------------------------------------------------
      O    1   -0.86602      1.99949     6.76841    0.09812     8.86602
      H    2    0.43476      0.00000     0.55319    0.01205     0.56524
     Br    3   -0.98472     27.98849     7.83702    0.15921    35.98472
      H    4    0.41599      0.00000     0.56285    0.02117     0.58401
 =======================================================================
   * Total *   -1.00000     29.98798    15.72147    0.29055    46.00000

 Normal termination of Gaussian 09 at Tue Oct 12 14:15:59 2021.
