 Gaussian 09, Revision E.01,
 Gaussian 09:  ES64L-G09RevE.01 30-Nov-2015

 ----------------------------------------------------
 #p pop=NBO SP NoSymm mp2/aug-cc-pvtz density=current
 ----------------------------------------------------

 -----
 title
 -----
 Symbolic Z-matrix:
 Charge = -1 Multiplicity = 1

                          Input orientation:
 ---------------------------------------------------------------------
 Center     Atomic      Atomic             Coordinates (Angstroms)
 Number     Number       Type             X           Y           Z
 ---------------------------------------------------------------------
      1          8           0        0.000000    0.000000    0.000000
      2          1           0        0.960788    0.000000    0.000000
      3         35           0       -0.662564   -3.188507    0.000000
      4          1           0       -0.203452   -0.979085    0.000000
 ---------------------------------------------------------------------

 SCF Done:  E(RHF) =  -2648.60644045     A.U. after   11 cycles
 E2 =    -0.5196378176D+00 EUMP2 =    -0.26491260782668D+04

 Alpha  occ. eigenvalues -- -489.74127 -64.88153 -58.23601 -58.23600 -58.23600
 Alpha  occ. eigenvalues --  -20.38811  -9.55399  -7.16157  -7.16133  -7.16129
 Alpha  occ. eigenvalues --   -2.90322  -2.90313  -2.90309  -2.90284  -2.90284
 Alpha  occ. eigenvalues --   -1.16589  -0.71300  -0.52302  -0.41357  -0.33166
 Alpha  occ. eigenvalues --   -0.16715  -0.16183  -0.16139
 Alpha virt. eigenvalues --    0.13609   0.17397   0.23360   0.24163   0.24830
 Alpha virt. eigenvalues --    0.27549   0.29667   0.29949   0.33853   0.34922
 Alpha virt. eigenvalues --    0.39894   0.41113   0.41684   0.46395   0.48107

 Mulliken charges:
               1
     1  O   -0.544361
     2  H    0.167519
     3  Br  -0.917447
     4  H    0.294289
 Sum of Mulliken charges =  -1.00000

 Dipole moment (field-independent basis, Debye):
    X=              3.8628    Y=             12.3209    Z=             -0.0000  Tot=             12.9123
 Quadrupole moment (field-independent basis, Debye-Ang):
   XX=            -30.8547   YY=            -73.8641   ZZ=            -31.6913
   XY=             -8.3273   XZ=             -0.0000   YZ=              0.0000

 Summary of Natural Population Analysis:

                                       Natural Population
                Natural  -----------------------------------------------
    Atom  No    Charge         Core      Valence    Rydberg      Total
 -----------------------------------------------------------------------
      O    1   -0.99253      1.99968     6.88982    0.10303     8.99253
      H    2    0.43867      0.00000     0.54921    0.01212     0.56133
     Br    3   -0.93481     27.98836     7.79111    0.15533    35.93481
      H    4    0.48866      0.00000     0.48992    0.02142     0.51134
 =======================================================================
   * Total *   -1.00000     29.98804    15.72006    0.29190    46.00000

 Normal termination of Gaussian 09 at Tue Oct 12 14:16:55 2021.
