 Gaussian 09, Revision E.01,
 Gaussian 09:  ES64L-G09RevE.01 30-Nov-2015

 ----------------------------------------------------
 #p pop=NBO SP NoSymm mp2/aug-cc-pvtz density=current
 ----------------------------------------------------

 -----
 title
 -----
 Symbolic Z-matrix:
 Charge = -1 Multiplicity = 1

                          Input orientation:
 ---------------------------------------------------------------------
 Center     Atomic      Atomic             Coordinates (Angstroms)
 Number     Number       Type             X           Y           Z
 ---------------------------------------------------------------------
      1          8           0        0.000000    0.000000    0.000000
      2          1           0        0.960788    0.000000    0.000000
      3         35           0       -0.662564   -3.188507    0.000000
      4          1           0       -0.193279   -0.930131    0.000000
 ---------------------------------------------------------------------

 SCF Done:  E(RHF) =  -2648.60802732     A.U. after   11 cycles
 E2 =    -0.5169989640D+00 EUMP2 =    -0.26491250262813D+04

 Alpha  occ. eigenvalues -- -489.73879 -64.87904 -58.23353 -58.23351 -58.23351
 Alpha  occ. eigenvalues --  -20.38907  -9.55149  -7.15902  -7.15885  -7.15882
 Alpha  occ. eigenvalues --   -2.90067  -2.90061  -2.90057  -2.90040  -2.90040
 Alpha  occ. eigenvalues --   -1.18163  -0.71007  -0.53936  -0.42169  -0.33778
 Alpha  occ. eigenvalues --   -0.16468  -0.15946  -0.15904
 Alpha virt. eigenvalues --    0.13523   0.17389   0.23402   0.24196   0.24897
 Alpha virt. eigenvalues --    0.27454   0.29426   0.29772   0.33968   0.34864
 Alpha virt. eigenvalues --    0.39782   0.40967   0.41598   0.46405   0.48201

 Mulliken charges:
               1
     1  O   -0.511655
     2  H    0.168019
     3  Br  -0.933781
     4  H    0.277417
 Sum of Mulliken charges =  -1.00000

 Dipole moment (field-independent basis, Debye):
    X=              3.9295    Y=             12.5615    Z=              0.0000  Tot=             13.1617
 Quadrupole moment (field-independent basis, Debye-Ang):
   XX=            -30.8774   YY=            -74.6491   ZZ=            -31.6818
   XY=             -8.4774   XZ=             -0.0000   YZ=             -0.0000

 Summary of Natural Population Analysis:

                                       Natural Population
                Natural  -----------------------------------------------
    Atom  No    Charge         Core      Valence    Rydberg      Total
 -----------------------------------------------------------------------
      O    1   -0.97365      1.99966     6.87237    0.10161     8.97365
      H    2    0.43913      0.00000     0.54887    0.01199     0.56087
     Br    3   -0.95088     27.98842     7.80628    0.15618    35.95088
      H    4    0.48540      0.00000     0.49345    0.02115     0.51460
 =======================================================================
   * Total *   -1.00000     29.98808    15.72098    0.29095    46.00000

 Normal termination of Gaussian 09 at Tue Oct 12 14:16:44 2021.
