 Gaussian 09, Revision E.01,
 Gaussian 09:  ES64L-G09RevE.01 30-Nov-2015

 ----------------------------------------------------
 #p pop=NBO SP NoSymm mp2/aug-cc-pvtz density=current
 ----------------------------------------------------

 -----
 title
 -----
 Symbolic Z-matrix:
 Charge = -1 Multiplicity = 1

                          Input orientation:
 ---------------------------------------------------------------------
 Center     Atomic      Atomic             Coordinates (Angstroms)
 Number     Number       Type             X           Y           Z
 ---------------------------------------------------------------------
      1          8           0        0.000000    0.000000    0.000000
      2          1           0        0.960788    0.000000    0.000000
      3         35           0       -0.662564   -3.188507    0.000000
      4          1           0       -0.274660   -1.321765    0.000000
 ---------------------------------------------------------------------

 SCF Done:  E(RHF) =  -2648.54956031     A.U. after   12 cycles
 E2 =    -0.5381338580D+00 EUMP2 =    -0.26490876941632D+04

 Alpha  occ. eigenvalues -- -489.77379 -64.91401 -58.26863 -58.26840 -58.26840
 Alpha  occ. eigenvalues --  -20.34361  -9.58645  -7.19477  -7.19339  -7.19335
 Alpha  occ. eigenvalues --   -2.93675  -2.93606  -2.93601  -2.93430  -2.93430
 Alpha  occ. eigenvalues --   -1.07161  -0.74898  -0.42468  -0.34375  -0.27086
 Alpha  occ. eigenvalues --   -0.19070  -0.18986  -0.18868
 Alpha virt. eigenvalues --    0.14604   0.17069   0.22897   0.23618   0.24017
 Alpha virt. eigenvalues --    0.28439   0.31221   0.31688   0.32902   0.35970
 Alpha virt. eigenvalues --    0.40919   0.41777   0.42465   0.45821   0.46278

 Mulliken charges:
               1
     1  O   -0.646557
     2  H    0.151101
     3  Br  -0.716549
     4  H    0.212004
 Sum of Mulliken charges =  -1.00000

 Dipole moment (field-independent basis, Debye):
    X=              3.1593    Y=              9.6149    Z=             -0.0000  Tot=             10.1207
 Quadrupole moment (field-independent basis, Debye-Ang):
   XX=            -30.2980   YY=            -64.6796   ZZ=            -31.5189
   XY=             -6.5916   XZ=             -0.0000   YZ=             -0.0000

 Summary of Natural Population Analysis:

                                       Natural Population
                Natural  -----------------------------------------------
    Atom  No    Charge         Core      Valence    Rydberg      Total
 -----------------------------------------------------------------------
      O    1   -1.07707      1.99972     6.96425    0.11311     9.07707
      H    2    0.42237      0.00000     0.56254    0.01509     0.57763
     Br    3   -0.73923     27.98767     7.60165    0.14990    35.73923
      H    4    0.39380      0.00000     0.58434    0.02187     0.60620
 =======================================================================
   * Total *   -1.00013     29.98739    15.71277    0.29997    46.00013

 Normal termination of Gaussian 09 at Tue Oct 12 14:18:15 2021.
