 Gaussian 16, Revision B.01,
 Gaussian 16:  ES64L-G16RevB.01 20-Dec-2017

 --------------------------------------------------------
 #p pop=NBO SP NoSymm mp2/gen Pseudo=read density=current
 --------------------------------------------------------

 -----
 title
 -----
 Symbolic Z-matrix:
 Charge = -1 Multiplicity = 1

                          Input orientation:
 ---------------------------------------------------------------------
 Center     Atomic      Atomic             Coordinates (Angstroms)
 Number     Number       Type             X           Y           Z
 ---------------------------------------------------------------------
      1          8           0        0.000000    0.000000    0.000000
      2         53           0        3.312298    0.000000    0.000000
      3         17           0       -0.386419    1.641657    0.000000
      4          1           0        0.858881    0.000000    0.495875
 ---------------------------------------------------------------------

 SCF Done:  E(RHF) =  -829.680648806     A.U. after   13 cycles
 E2 =    -0.6801437189D+00 EUMP2 =    -0.83036079252452D+03

 Alpha  occ. eigenvalues -- -104.74697 -20.48602 -10.46652  -7.93370  -7.93096
 Alpha  occ. eigenvalues --   -7.93082  -7.47164  -5.29743  -5.29686  -5.29676
 Alpha  occ. eigenvalues --   -2.02491  -2.02467  -2.02459  -2.02393  -2.02392
 Alpha  occ. eigenvalues --   -1.25425  -0.91306  -0.63516  -0.56063  -0.46221
 Alpha  occ. eigenvalues --   -0.45339  -0.32406  -0.29810  -0.15402  -0.14681
 Alpha  occ. eigenvalues --   -0.14616
 Alpha virt. eigenvalues --    0.14930   0.17391   0.21540   0.22335   0.24099
 Alpha virt. eigenvalues --    0.25149   0.25372   0.27156   0.28052   0.29649
 Alpha virt. eigenvalues --    0.31058   0.32160   0.34358   0.37068   0.38030

 Mulliken charges:
               1
     1  O   -0.419066
     2  I   -0.878320
     3  Cl   0.068007
     4  H    0.229379
 Sum of Mulliken charges =  -1.00000

 Dipole moment (field-independent basis, Debye):
    X=            -12.5522    Y=             -0.4623    Z=              0.3420  Tot=             12.5654
 Quadrupole moment (field-independent basis, Debye-Ang):
   XX=            -99.0715   YY=            -53.2520   ZZ=            -52.9925
   XY=              0.3939   XZ=             -0.0281   YZ=             -0.1549

 Summary of Natural Population Analysis:

                                       Natural Population
                Natural  -----------------------------------------------
    Atom  No    Charge         Core      Valence    Rydberg      Total
 -----------------------------------------------------------------------
      O    1   -0.73174      1.99971     6.62221    0.10982     8.73174
      I    2   -0.92473     45.98375     7.77113    0.16986    53.92473
     Cl    3    0.16842      9.99983     6.68902    0.14274    16.83158
      H    4    0.48806      0.00000     0.48645    0.02549     0.51194
 =======================================================================
   * Total *   -1.00000     57.98328    21.56882    0.44790    80.00000

 Normal termination of Gaussian 16 at Tue Sep 28 09:17:05 2021.
