 Gaussian 16, Revision B.01,
 Gaussian 16:  ES64L-G16RevB.01 20-Dec-2017

 --------------------------------------------------------
 #p pop=NBO SP NoSymm mp2/gen Pseudo=read density=current
 --------------------------------------------------------

 -----
 title
 -----
 Symbolic Z-matrix:
 Charge = -1 Multiplicity = 1

                          Input orientation:
 ---------------------------------------------------------------------
 Center     Atomic      Atomic             Coordinates (Angstroms)
 Number     Number       Type             X           Y           Z
 ---------------------------------------------------------------------
      1          8           0        0.000000    0.000000    0.000000
      2         53           0        3.312298    0.000000    0.000000
      3         17           0       -0.386419    1.641657    0.000000
      4          1           0        0.968833    0.000000    0.259598
 ---------------------------------------------------------------------

 SCF Done:  E(RHF) =  -829.684331875     A.U. after   13 cycles
 E2 =    -0.6819956679D+00 EUMP2 =    -0.83036632754291D+03

 Alpha  occ. eigenvalues -- -104.74283 -20.47848 -10.46231  -7.92948  -7.92677
 Alpha  occ. eigenvalues --   -7.92666  -7.47678  -5.30261  -5.30195  -5.30193
 Alpha  occ. eigenvalues --   -2.03017  -2.02979  -2.02978  -2.02906  -2.02906
 Alpha  occ. eigenvalues --   -1.24514  -0.90809  -0.64230  -0.55236  -0.45596
 Alpha  occ. eigenvalues --   -0.44742  -0.31933  -0.29325  -0.16124  -0.15176
 Alpha  occ. eigenvalues --   -0.15161
 Alpha virt. eigenvalues --    0.15175   0.17598   0.21551   0.22526   0.24030
 Alpha virt. eigenvalues --    0.25019   0.25270   0.27500   0.29303   0.29761
 Alpha virt. eigenvalues --    0.30849   0.31968   0.34672   0.37256   0.37928

 Mulliken charges:
               1
     1  O   -0.466675
     2  I   -0.845764
     3  Cl   0.058445
     4  H    0.253994
 Sum of Mulliken charges =  -1.00000

 Dipole moment (field-independent basis, Debye):
    X=            -11.9868    Y=             -0.5184    Z=              0.1513  Tot=             11.9990
 Quadrupole moment (field-independent basis, Debye-Ang):
   XX=            -96.7467   YY=            -53.2020   ZZ=            -53.2073
   XY=              0.3913   XZ=             -0.0378   YZ=             -0.0783

 Summary of Natural Population Analysis:

                                       Natural Population
                Natural  -----------------------------------------------
    Atom  No    Charge         Core      Valence    Rydberg      Total
 -----------------------------------------------------------------------
      O    1   -0.75573      1.99970     6.64566    0.11037     8.75573
      I    2   -0.88661     45.98341     7.73632    0.16688    53.88661
     Cl    3    0.16620      9.99981     6.69146    0.14253    16.83380
      H    4    0.47613      0.00000     0.49504    0.02883     0.52387
 =======================================================================
   * Total *   -1.00000     57.98292    21.56847    0.44861    80.00000

 Normal termination of Gaussian 16 at Tue Sep 28 09:16:11 2021.
