 Gaussian 16, Revision B.01,
 Gaussian 16:  ES64L-G16RevB.01 20-Dec-2017

 ---------------------------------------------
 # opt=(z-matrix) mp2/gen Pseudo=read freq=anh
 ---------------------------------------------

 -----
 title
 -----
 Symbolic Z-matrix:
 Charge = -1 Multiplicity = 1

 SCF Done:  E(RHF) =  -829.677417800     A.U. after   14 cycles
 E2 =    -0.6885649515D+00 EUMP2 =    -0.83036598275134D+03
 SCF Done:  E(RHF) =  -829.681564592     A.U. after   12 cycles
 E2 =    -0.6862425809D+00 EUMP2 =    -0.83036780717247D+03
 SCF Done:  E(RHF) =  -829.684394683     A.U. after   11 cycles
 E2 =    -0.6839922908D+00 EUMP2 =    -0.83036838697412D+03
 SCF Done:  E(RHF) =  -829.685486081     A.U. after   11 cycles
 E2 =    -0.6830065321D+00 EUMP2 =    -0.83036849261272D+03
 SCF Done:  E(RHF) =  -829.685755983     A.U. after    9 cycles
 E2 =    -0.6827458536D+00 EUMP2 =    -0.83036850183661D+03
 SCF Done:  E(RHF) =  -829.685767051     A.U. after    9 cycles
 E2 =    -0.6827356630D+00 EUMP2 =    -0.83036850271370D+03
 SCF Done:  E(RHF) =  -829.685764267     A.U. after    9 cycles
 E2 =    -0.6827394741D+00 EUMP2 =    -0.83036850374058D+03
 SCF Done:  E(RHF) =  -829.685755601     A.U. after    9 cycles
 E2 =    -0.6827487883D+00 EUMP2 =    -0.83036850438970D+03
 SCF Done:  E(RHF) =  -829.685739572     A.U. after    9 cycles
 E2 =    -0.6827655563D+00 EUMP2 =    -0.83036850512812D+03
 SCF Done:  E(RHF) =  -829.685719422     A.U. after    9 cycles
 E2 =    -0.6827864015D+00 EUMP2 =    -0.83036850582311D+03
 Optimization completed.
    -- Stationary point found.
 Normal termination of Gaussian 16 at Tue Jun 22 19:15:23 2021.

 --------------------------------------------------------------------
 #N Geom=AllCheck Guess=TCheck SCRF=Check GenChk RMP2(FC)/ChkBas Freq
 --------------------------------------------------------------------

 Structure from the checkpoint file:  "/gscratch/ilahie/abmccoy/hocl/i_hocl.chk"
 -----
 title
 -----
 Charge = -1 Multiplicity = 1

                         Standard orientation:
 ---------------------------------------------------------------------
 Center     Atomic      Atomic             Coordinates (Angstroms)
 Number     Number       Type             X           Y           Z
 ---------------------------------------------------------------------
      1          8           0        1.913296    1.008429   -0.000000
      2          1           0        0.973641    0.643736    0.000003
      3         17           0        2.866222   -0.384419    0.000000
      4         53           0       -1.226524   -0.041057   -0.000000
 ---------------------------------------------------------------------

 E2 =    -0.6827864032D+00 EUMP2 =    -0.83036850582478D+03
 E2 =    -0.6827864032D+00 EUMP2 =    -0.83036850582478D+03
 E2 =    -0.6827985155D+00 EUMP2 =    -0.83036850589092D+03
 E2 =    -0.6827985155D+00 EUMP2 =    -0.83036850589092D+03
 E2 =    -0.6827743708D+00 EUMP2 =    -0.83036850569185D+03
 E2 =    -0.6827743708D+00 EUMP2 =    -0.83036850569185D+03
 SCF Done:  E(RHF) =  -829.685681232     A.U. after    9 cycles
 E2 =    -0.6828245453D+00 EUMP2 =    -0.83036850577754D+03
 E2 =    -0.6828245453D+00 EUMP2 =    -0.83036850577754D+03
 SCF Done:  E(RHF) =  -829.685756736     A.U. after    9 cycles
 E2 =    -0.6827485858D+00 EUMP2 =    -0.83036850532187D+03
 E2 =    -0.6827485858D+00 EUMP2 =    -0.83036850532187D+03
 SCF Done:  E(RHF) =  -829.685713816     A.U. after   10 cycles
 E2 =    -0.6827887612D+00 EUMP2 =    -0.83036850257725D+03
 E2 =    -0.6827887612D+00 EUMP2 =    -0.83036850257725D+03
 SCF Done:  E(RHF) =  -829.685713818     A.U. after   10 cycles
 E2 =    -0.6827887625D+00 EUMP2 =    -0.83036850258096D+03
 E2 =    -0.6827887625D+00 EUMP2 =    -0.83036850258096D+03
 SCF Done:  E(RHF) =  -829.685853645     A.U. after    9 cycles
 E2 =    -0.6826488184D+00 EUMP2 =    -0.83036850246343D+03
 E2 =    -0.6826488184D+00 EUMP2 =    -0.83036850246343D+03
 SCF Done:  E(RHF) =  -829.685577205     A.U. after    9 cycles
 E2 =    -0.6829239304D+00 EUMP2 =    -0.83036850113501D+03
 E2 =    -0.6829239304D+00 EUMP2 =    -0.83036850113501D+03
 SCF Done:  E(RHF) =  -829.685639971     A.U. after    9 cycles
 E2 =    -0.6828490541D+00 EUMP2 =    -0.83036848902459D+03
 E2 =    -0.6828490541D+00 EUMP2 =    -0.83036848902459D+03
 SCF Done:  E(RHF) =  -829.685765297     A.U. after    9 cycles
 E2 =    -0.6827313633D+00 EUMP2 =    -0.83036849666045D+03
 E2 =    -0.6827313633D+00 EUMP2 =    -0.83036849666045D+03
 SCF Done:  E(RHF) =  -829.685025563     A.U. after    9 cycles
 E2 =    -0.6834186521D+00 EUMP2 =    -0.83036844421482D+03
 E2 =    -0.6834186521D+00 EUMP2 =    -0.83036844421482D+03
 SCF Done:  E(RHF) =  -829.686286644     A.U. after    9 cycles
 E2 =    -0.6821555460D+00 EUMP2 =    -0.83036844218991D+03
 E2 =    -0.6821555460D+00 EUMP2 =    -0.83036844218991D+03

 Alpha  occ. eigenvalues -- -104.74282 -20.47667 -10.46228  -7.92945  -7.92676
 Alpha  occ. eigenvalues --   -7.92665  -7.47841  -5.30423  -5.30359  -5.30358
 Alpha  occ. eigenvalues --   -2.03183  -2.03141  -2.03140  -2.03072  -2.03072
 Alpha  occ. eigenvalues --   -1.24452  -0.90858  -0.64470  -0.55250  -0.45498
 Alpha  occ. eigenvalues --   -0.44638  -0.31956  -0.29317  -0.16359  -0.15342
 Alpha  occ. eigenvalues --   -0.15340
 Alpha virt. eigenvalues --    0.15203   0.17641   0.21579   0.22523   0.23923
 Alpha virt. eigenvalues --    0.24897   0.25233   0.27530   0.29661   0.30489
 Alpha virt. eigenvalues --    0.30798   0.31244   0.34748   0.37332   0.37873

 Mulliken charges:
               1
     1  O   -0.478856
     2  H    0.272549
     3  Cl   0.046673
     4  I   -0.840366
 Sum of Mulliken charges =  -1.00000

 Dipole moment (field-independent basis, Debye):
    X=              1.8481    Y=             -0.6259    Z=              0.0000  Tot=              1.9512
 Quadrupole moment (field-independent basis, Debye-Ang):
   XX=            -67.2293   YY=            -53.6713   ZZ=            -53.2861
   XY=             -2.6506   XZ=              0.0000   YZ=              0.0000

  Exact polarizability:  98.376  -1.894  74.533   0.000   0.000  69.887
 Approx polarizability:  71.997  -2.950  70.084   0.000   0.000  63.586

                      1                      2                      3
                      A                      A                      A
 Frequencies --     71.5488               202.2028               693.0289
 Red. masses --     23.2675                 7.8859                 1.0346
 Frc consts  --      0.0702                 0.1900                 0.2928
 IR Inten    --      1.6272                 9.6190                14.7016

                      4                      5                      6
                      A                      A                      A
 Frequencies --    771.9536              1386.1249              3043.6130
 Red. masses --     16.9422                 1.0581                 1.0720
 Frc consts  --      5.9484                 1.1978                 5.8506
 IR Inten    --      8.0575                17.5437              2335.4137

 - Thermochemistry -
 -------------------
 Temperature   298.150 Kelvin.  Pressure   1.00000 Atm.
 Atom     1 has atomic number  8 and mass  15.99491

 Molecular mass:   178.87199 amu.
 Principal axes and moments of inertia in atomic units:
                           1         2         3
     Eigenvalues --    78.719451908.787821987.50727
           X            1.00000   0.00175   0.00000
           Y           -0.00175   1.00000   0.00000
           Z           -0.00000  -0.00000   1.00000
 This molecule is an asymmetric top.
 Rotational symmetry number  1.
 Rotational temperatures (Kelvin)      1.10029     0.04538     0.04358
 Rotational constants (GHZ):          22.92624     0.94549     0.90804
 Zero-point vibrational energy      36895.7 (Joules/Mol)
                                    8.81827 (Kcal/Mol)
 Warning -- explicit consideration of   2 degrees of freedom as
           vibrations may cause significant error
 Vibrational temperatures:    102.94   290.92   997.11  1110.67  1994.32
          (Kelvin)           4379.08

 Zero-point correction=                           0.014053 (Hartree/Particle)
 Thermal correction to Energy=                    0.018443
 Thermal correction to Enthalpy=                  0.019388
 Thermal correction to Gibbs Free Energy=        -0.016453
 Sum of electronic and zero-point Energies=           -830.354453
 Sum of electronic and thermal Energies=              -830.350062
 Sum of electronic and thermal Enthalpies=            -830.349118
 Sum of electronic and thermal Free Energies=         -830.384958

                     E (Thermal)             CV                S
                      KCal/Mol        Cal/Mol-Kelvin    Cal/Mol-Kelvin
 Total                   11.573             11.418             75.432
 Electronic               0.000              0.000              0.000
 Translational            0.889              2.981             41.451
 Rotational               0.889              2.981             27.193
 Vibrational              9.796              5.456              6.788
 Vibration     1          0.598              1.968              4.110
 Vibration     2          0.639              1.837              2.113

 ## DEPERTURBED TRANSITIONS MOMENTS ##

 Electric dipole : Fundamental Bands
 ------------------------------------------------------------------------

 ## AFTER VARIATIONAL CORRECTION

 Electric dipole : Fundamental Bands
 ------------------------------------------------------------------------

                       ! Non-Optimized Parameters !
 Normal termination of Gaussian 16 at Tue Jun 22 20:12:35 2021.
