 Gaussian 16, Revision B.01,
 Gaussian 16:  ES64L-G16RevB.01 20-Dec-2017

 --------------------------------------------------------
 #p pop=NBO SP NoSymm mp2/gen Pseudo=read density=current
 --------------------------------------------------------

 -----
 title
 -----
 Symbolic Z-matrix:
 Charge = -1 Multiplicity = 1

                          Input orientation:
 ---------------------------------------------------------------------
 Center     Atomic      Atomic             Coordinates (Angstroms)
 Number     Number       Type             X           Y           Z
 ---------------------------------------------------------------------
      1          8           0        0.000000    0.000000    0.000000
      2         53           0        3.312298    0.000000    0.000000
      3         17           0       -0.386419    1.641657    0.000000
      4          1           0        0.628891    0.000000    0.749483
 ---------------------------------------------------------------------

 SCF Done:  E(RHF) =  -829.673020865     A.U. after   13 cycles
 E2 =    -0.6780100142D+00 EUMP2 =    -0.83035103087966D+03

 Alpha  occ. eigenvalues -- -104.75271 -20.49714 -10.47240  -7.93959  -7.93680
 Alpha  occ. eigenvalues --   -7.93663  -7.46333  -5.28903  -5.28862  -5.28841
 Alpha  occ. eigenvalues --   -2.01646  -2.01635  -2.01615  -2.01567  -2.01564
 Alpha  occ. eigenvalues --   -1.26781  -0.91956  -0.62431  -0.57267  -0.47114
 Alpha  occ. eigenvalues --   -0.46193  -0.33105  -0.30478  -0.14285  -0.13882
 Alpha  occ. eigenvalues --   -0.13745
 Alpha virt. eigenvalues --    0.14392   0.17038   0.21363   0.22271   0.24326
 Alpha virt. eigenvalues --    0.25280   0.25537   0.26596   0.27008   0.29620
 Alpha virt. eigenvalues --    0.31029   0.31225   0.34017   0.37076   0.38268

 Mulliken charges:
               1
     1  O   -0.374111
     2  I   -0.929430
     3  Cl   0.079258
     4  H    0.224284
 Sum of Mulliken charges =  -1.00000

 Dipole moment (field-independent basis, Debye):
    X=            -13.4948    Y=             -0.3942    Z=              0.6549  Tot=             13.5165
 Quadrupole moment (field-independent basis, Debye-Ang):
   XX=           -102.7765   YY=            -53.3615   ZZ=            -52.5183
   XY=              0.4216   XZ=             -0.0354   YZ=             -0.2498

 Summary of Natural Population Analysis:

                                       Natural Population
                Natural  -----------------------------------------------
    Atom  No    Charge         Core      Valence    Rydberg      Total
 -----------------------------------------------------------------------
      O    1   -0.69335      1.99971     6.58348    0.11016     8.69335
      I    2   -0.96618     45.98399     7.80780    0.17439    53.96618
     Cl    3    0.17012      9.99984     6.68649    0.14356    16.82988
      H    4    0.48942      0.00000     0.49074    0.01984     0.51058
 =======================================================================
   * Total *   -1.00000     57.98355    21.56850    0.44795    80.00000

 Normal termination of Gaussian 16 at Tue Sep 28 09:18:17 2021.
