 Gaussian 16, Revision B.01,
 Gaussian 16:  ES64L-G16RevB.01 20-Dec-2017

 --------------------------------------------------------
 #p pop=NBO SP NoSymm mp2/gen Pseudo=read density=current
 --------------------------------------------------------

 -----
 title
 -----
 Symbolic Z-matrix:
 Charge = -1 Multiplicity = 1

                          Input orientation:
 ---------------------------------------------------------------------
 Center     Atomic      Atomic             Coordinates (Angstroms)
 Number     Number       Type             X           Y           Z
 ---------------------------------------------------------------------
      1          8           0        0.000000    0.000000    0.000000
      2         53           0        3.312298    0.000000    0.000000
      3         17           0       -0.386419    1.641657    0.000000
      4          1           0        0.693757    0.000000    0.694195
 ---------------------------------------------------------------------

 SCF Done:  E(RHF) =  -829.675090281     A.U. after   13 cycles
 E2 =    -0.6784453224D+00 EUMP2 =    -0.83035353560346D+03

 Alpha  occ. eigenvalues -- -104.75139 -20.49453 -10.47104  -7.93823  -7.93544
 Alpha  occ. eigenvalues --   -7.93528  -7.46540  -5.29112  -5.29067  -5.29048
 Alpha  occ. eigenvalues --   -2.01856  -2.01842  -2.01825  -2.01771  -2.01769
 Alpha  occ. eigenvalues --   -1.26451  -0.91810  -0.62693  -0.56977  -0.46904
 Alpha  occ. eigenvalues --   -0.45993  -0.32939  -0.30324  -0.14555  -0.14080
 Alpha  occ. eigenvalues --   -0.13961
 Alpha virt. eigenvalues --    0.14542   0.17125   0.21419   0.22268   0.24258
 Alpha virt. eigenvalues --    0.25257   0.25502   0.26724   0.27197   0.29614
 Alpha virt. eigenvalues --    0.31158   0.31435   0.34063   0.37084   0.38201

 Mulliken charges:
               1
     1  O   -0.382468
     2  I   -0.917164
     3  Cl   0.077236
     4  H    0.222396
 Sum of Mulliken charges =  -1.00000

 Dipole moment (field-independent basis, Debye):
    X=            -13.2558    Y=             -0.4083    Z=              0.5740  Tot=             13.2745
 Quadrupole moment (field-independent basis, Debye-Ang):
   XX=           -101.8702   YY=            -53.3323   ZZ=            -52.6489
   XY=              0.4115   XZ=             -0.0204   YZ=             -0.2271

 Summary of Natural Population Analysis:

                                       Natural Population
                Natural  -----------------------------------------------
    Atom  No    Charge         Core      Valence    Rydberg      Total
 -----------------------------------------------------------------------
      O    1   -0.70232      1.99971     6.59276    0.10986     8.70232
      I    2   -0.95845     45.98396     7.80111    0.17338    53.95845
     Cl    3    0.16992      9.99984     6.68691    0.14333    16.83008
      H    4    0.49085      0.00000     0.48793    0.02122     0.50915
 =======================================================================
   * Total *   -1.00000     57.98351    21.56870    0.44779    80.00000

 Normal termination of Gaussian 16 at Tue Sep 28 09:18:00 2021.
