 Gaussian 16, Revision B.01,
 Gaussian 16:  ES64L-G16RevB.01 20-Dec-2017

 ----------------------------------------------------
 # opt=(z-matrix) mp2/gen Pseudo=read density=current
 ----------------------------------------------------

 -----
 title
 -----
 Symbolic Z-matrix:
 Charge = -1 Multiplicity = 1

 SCF Done:  E(RHF) =  -829.676572939     A.U. after   13 cycles
 E2 =    -0.6885385042D+00 EUMP2 =    -0.83036511144314D+03
 SCF Done:  E(RHF) =  -829.680880154     A.U. after   11 cycles
 E2 =    -0.6865598601D+00 EUMP2 =    -0.83036744001378D+03
 SCF Done:  E(RHF) =  -829.684107055     A.U. after   11 cycles
 E2 =    -0.6842053461D+00 EUMP2 =    -0.83036831240157D+03
 SCF Done:  E(RHF) =  -829.685291268     A.U. after   11 cycles
 E2 =    -0.6831431765D+00 EUMP2 =    -0.83036843444430D+03
 SCF Done:  E(RHF) =  -829.685578470     A.U. after   10 cycles
 E2 =    -0.6828672102D+00 EUMP2 =    -0.83036844568059D+03
 SCF Done:  E(RHF) =  -829.685603328     A.U. after    8 cycles
 E2 =    -0.6828428158D+00 EUMP2 =    -0.83036844614372D+03
 SCF Done:  E(RHF) =  -829.685584075     A.U. after    7 cycles
 E2 =    -0.6828621366D+00 EUMP2 =    -0.83036844621149D+03
 Optimization completed.
    -- Stationary point found.

                         Standard orientation:
 ---------------------------------------------------------------------
 Center     Atomic      Atomic             Coordinates (Angstroms)
 Number     Number       Type             X           Y           Z
 ---------------------------------------------------------------------
      1          8           0        0.297492    2.160199    0.000000
      2         17           0        1.980070    2.044927    0.000000
      3         53           0       -0.680021   -1.004574    0.000000
      4          1           0        0.000000    1.197045    0.000000
 ---------------------------------------------------------------------

 The electronic state is 1-A'.
 Alpha  occ. eigenvalues -- -104.74105 -20.47533 -10.46051  -7.92768  -7.92498
 Alpha  occ. eigenvalues --   -7.92487  -7.47884  -5.30468  -5.30401  -5.30399
 Alpha  occ. eigenvalues --   -2.03229  -2.03186  -2.03184  -2.03112  -2.03112
 Alpha  occ. eigenvalues --   -1.24136  -0.90594  -0.64527  -0.54892  -0.45329
 Alpha  occ. eigenvalues --   -0.44491  -0.31737  -0.29115  -0.16418  -0.15383
 Alpha  occ. eigenvalues --   -0.15374
 Alpha virt. eigenvalues --    0.15254   0.17667   0.21537   0.22644   0.24016
 Alpha virt. eigenvalues --    0.24957   0.25235   0.27621   0.29617   0.30624
 Alpha virt. eigenvalues --    0.30762   0.31251   0.34730   0.37386   0.37874

 Mulliken charges:
               1
     1  O   -0.488498
     2  Cl   0.054022
     3  I   -0.835790
     4  H    0.270267
 Sum of Mulliken charges =  -1.00000

 Dipole moment (field-independent basis, Debye):
    X=              1.5235    Y=              1.0228    Z=              0.0000  Tot=              1.8350
 Quadrupole moment (field-independent basis, Debye-Ang):
   XX=            -55.7876   YY=            -65.0445   ZZ=            -53.2791
   XY=             -5.6614   XZ=              0.0000   YZ=              0.0000

 Normal termination of Gaussian 16 at Tue Sep 28 09:14:57 2021.
