 Gaussian 16, Revision B.01,
 Gaussian 16:  ES64L-G16RevB.01 20-Dec-2017

 --------------------------------------------------------
 #p pop=NBO SP NoSymm mp2/gen Pseudo=read density=current
 --------------------------------------------------------

 -----
 title
 -----
 Symbolic Z-matrix:
 Charge = -1 Multiplicity = 1

                          Input orientation:
 ---------------------------------------------------------------------
 Center     Atomic      Atomic             Coordinates (Angstroms)
 Number     Number       Type             X           Y           Z
 ---------------------------------------------------------------------
      1          8           0        0.000000    0.000000    0.000000
      2         53           0        3.312298    0.000000    0.000000
      3         17           0       -0.386419    1.641657    0.000000
      4          1           0        0.939298    0.000000    0.341876
 ---------------------------------------------------------------------

 SCF Done:  E(RHF) =  -829.683359873     A.U. after   13 cycles
 E2 =    -0.6814261944D+00 EUMP2 =    -0.83036478606708D+03

 Alpha  occ. eigenvalues -- -104.74406 -20.48068 -10.46356  -7.93073  -7.92801
 Alpha  occ. eigenvalues --   -7.92789  -7.47531  -5.30113  -5.30049  -5.30045
 Alpha  occ. eigenvalues --   -2.02866  -2.02833  -2.02830  -2.02759  -2.02759
 Alpha  occ. eigenvalues --   -1.24780  -0.90958  -0.64022  -0.55478  -0.45780
 Alpha  occ. eigenvalues --   -0.44918  -0.32070  -0.29469  -0.15915  -0.15035
 Alpha  occ. eigenvalues --   -0.15004
 Alpha virt. eigenvalues --    0.15112   0.17542   0.21555   0.22457   0.24044
 Alpha virt. eigenvalues --    0.25060   0.25298   0.27407   0.28870   0.29703
 Alpha virt. eigenvalues --    0.30922   0.32134   0.34602   0.37162   0.37955

 Mulliken charges:
               1
     1  O   -0.451710
     2  I   -0.854731
     3  Cl   0.061316
     4  H    0.245126
 Sum of Mulliken charges =  -1.00000

 Dipole moment (field-independent basis, Debye):
    X=            -12.1476    Y=             -0.5015    Z=              0.2096  Tot=             12.1598
 Quadrupole moment (field-independent basis, Debye-Ang):
   XX=            -97.4123   YY=            -53.2149   ZZ=            -53.1516
   XY=              0.3912   XZ=             -0.0394   YZ=             -0.1042

 Summary of Natural Population Analysis:

                                       Natural Population
                Natural  -----------------------------------------------
    Atom  No    Charge         Core      Valence    Rydberg      Total
 -----------------------------------------------------------------------
      O    1   -0.74917      1.99971     6.63925    0.11022     8.74917
      I    2   -0.89825     45.98352     7.74702    0.16770    53.89825
     Cl    3    0.16692      9.99981     6.69071    0.14255    16.83308
      H    4    0.48050      0.00000     0.49159    0.02791     0.51950
 =======================================================================
   * Total *   -1.00000     57.98304    21.56857    0.44839    80.00000

 Normal termination of Gaussian 16 at Tue Sep 28 09:16:29 2021.
