 Gaussian 16, Revision B.01,
 Gaussian 16:  ES64L-G16RevB.01 20-Dec-2017

 --------------------------------------------------------
 #p pop=NBO SP NoSymm mp2/gen Pseudo=read density=current
 --------------------------------------------------------

 -----
 title
 -----
 Symbolic Z-matrix:
 Charge = -1 Multiplicity = 1

                          Input orientation:
 ---------------------------------------------------------------------
 Center     Atomic      Atomic             Coordinates (Angstroms)
 Number     Number       Type             X           Y           Z
 ---------------------------------------------------------------------
      1          8           0        0.000000    0.000000    0.000000
      2         53           0        3.312298    0.000000    0.000000
      3         17           0       -0.386419    1.641657    0.000000
      4          1           0        0.754018    0.000000    0.632696
 ---------------------------------------------------------------------

 SCF Done:  E(RHF) =  -829.677107779     A.U. after   13 cycles
 E2 =    -0.6789352423D+00 EUMP2 =    -0.83035604302081D+03

 Alpha  occ. eigenvalues -- -104.74999 -20.49174 -10.46960  -7.93679  -7.93401
 Alpha  occ. eigenvalues --   -7.93386  -7.46750  -5.29324  -5.29275  -5.29259
 Alpha  occ. eigenvalues --   -2.02069  -2.02052  -2.02038  -2.01980  -2.01979
 Alpha  occ. eigenvalues --   -1.26120  -0.91655  -0.62966  -0.56686  -0.46684
 Alpha  occ. eigenvalues --   -0.45783  -0.32767  -0.30161  -0.14836  -0.14282
 Alpha  occ. eigenvalues --   -0.14181
 Alpha virt. eigenvalues --    0.14684   0.17214   0.21471   0.22275   0.24195
 Alpha virt. eigenvalues --    0.25227   0.25460   0.26865   0.27431   0.29617
 Alpha virt. eigenvalues --    0.31144   0.31748   0.34132   0.37082   0.38139

 Mulliken charges:
               1
     1  O   -0.392232
     2  I   -0.904381
     3  Cl   0.074578
     4  H    0.222036
 Sum of Mulliken charges =  -1.00000

 Dipole moment (field-independent basis, Debye):
    X=            -13.0164    Y=             -0.4244    Z=              0.4934  Tot=             13.0327
 Quadrupole moment (field-independent basis, Debye-Ang):
   XX=           -100.9348   YY=            -53.3025   ZZ=            -52.7750
   XY=              0.4033   XZ=             -0.0166   YZ=             -0.2036

 Summary of Natural Population Analysis:

                                       Natural Population
                Natural  -----------------------------------------------
    Atom  No    Charge         Core      Valence    Rydberg      Total
 -----------------------------------------------------------------------
      O    1   -0.71184      1.99971     6.60244    0.10969     8.71184
      I    2   -0.94889     45.98391     7.79272    0.17226    53.94889
     Cl    3    0.16957      9.99984     6.68748    0.14311    16.83043
      H    4    0.49115      0.00000     0.48619    0.02266     0.50885
 =======================================================================
   * Total *   -1.00000     57.98346    21.56884    0.44771    80.00000

 Normal termination of Gaussian 16 at Tue Sep 28 09:17:41 2021.
