 Gaussian 16, Revision B.01,
 Gaussian 16:  ES64L-G16RevB.01 20-Dec-2017

 --------------------------------------------------------
 #p pop=NBO SP NoSymm mp2/gen Pseudo=read density=current
 --------------------------------------------------------

 -----
 title
 -----
 Symbolic Z-matrix:
 Charge = -1 Multiplicity = 1

                          Input orientation:
 ---------------------------------------------------------------------
 Center     Atomic      Atomic             Coordinates (Angstroms)
 Number     Number       Type             X           Y           Z
 ---------------------------------------------------------------------
      1          8           0        0.000000    0.000000    0.000000
      2         53           0        3.312298    0.000000    0.000000
      3         17           0       -0.386419    1.641657    0.000000
      4          1           0        0.990461    0.000000    0.174645
 ---------------------------------------------------------------------

 SCF Done:  E(RHF) =  -829.685026974     A.U. after   13 cycles
 E2 =    -0.6824557933D+00 EUMP2 =    -0.83036748276687D+03

 Alpha  occ. eigenvalues -- -104.74187 -20.47677 -10.46134  -7.92851  -7.92580
 Alpha  occ. eigenvalues --   -7.92569  -7.47790  -5.30374  -5.30307  -5.30305
 Alpha  occ. eigenvalues --   -2.03132  -2.03091  -2.03090  -2.03018  -2.03018
 Alpha  occ. eigenvalues --   -1.24309  -0.90693  -0.64390  -0.55049  -0.45452
 Alpha  occ. eigenvalues --   -0.44606  -0.31827  -0.29212  -0.16283  -0.15285
 Alpha  occ. eigenvalues --   -0.15280
 Alpha virt. eigenvalues --    0.15219   0.17637   0.21544   0.22587   0.24022
 Alpha virt. eigenvalues --    0.24986   0.25251   0.27568   0.29561   0.30001
 Alpha virt. eigenvalues --    0.30787   0.31727   0.34709   0.37333   0.37902

 Mulliken charges:
               1
     1  O   -0.478492
     2  I   -0.839716
     3  Cl   0.056128
     4  H    0.262080
 Sum of Mulliken charges =  -1.00000

 Dipole moment (field-independent basis, Debye):
    X=            -11.8646    Y=             -0.5317    Z=              0.0978  Tot=             11.8769
 Quadrupole moment (field-independent basis, Debye-Ang):
   XX=            -96.2384   YY=            -53.1928   ZZ=            -53.2471
   XY=              0.3918   XZ=             -0.0300   YZ=             -0.0523

 Summary of Natural Population Analysis:

                                       Natural Population
                Natural  -----------------------------------------------
    Atom  No    Charge         Core      Valence    Rydberg      Total
 -----------------------------------------------------------------------
      O    1   -0.76050      1.99970     6.65033    0.11046     8.76050
      I    2   -0.87741     45.98332     7.72783    0.16626    53.87741
     Cl    3    0.16562      9.99980     6.69204    0.14254    16.83438
      H    4    0.47229      0.00000     0.49820    0.02950     0.52771
 =======================================================================
   * Total *   -1.00000     57.98283    21.56841    0.44876    80.00000

 Normal termination of Gaussian 16 at Tue Sep 28 09:15:53 2021.
