 Gaussian 16, Revision B.01,
 Gaussian 16:  ES64L-G16RevB.01 20-Dec-2017

 ----------------------------------------------------
 # opt=(z-matrix) mp2/gen Pseudo=read density=current
 ----------------------------------------------------

 -----
 title
 -----
 Symbolic Z-matrix:
 Charge = -1 Multiplicity = 1

 SCF Done:  E(RHF) =  -829.685584080     A.U. after   13 cycles
 E2 =    -0.6828621342D+00 EUMP2 =    -0.83036844621460D+03
 Optimization completed.
    -- Stationary point found.
 SCF Done:  E(RHF) =  -829.685407745     A.U. after   11 cycles
 E2 =    -0.6827935874D+00 EUMP2 =    -0.83036820133224D+03
 SCF Done:  E(RHF) =  -829.685434889     A.U. after    7 cycles
 E2 =    -0.6827666360D+00 EUMP2 =    -0.83036820152523D+03
 Optimization completed.
 SCF Done:  E(RHF) =  -829.684907774     A.U. after   11 cycles
 E2 =    -0.6825728706D+00 EUMP2 =    -0.83036748064445D+03
 SCF Done:  E(RHF) =  -829.684994681     A.U. after    8 cycles
 E2 =    -0.6824879229D+00 EUMP2 =    -0.83036748260428D+03
 SCF Done:  E(RHF) =  -829.685027086     A.U. after    7 cycles
 E2 =    -0.6824556763D+00 EUMP2 =    -0.83036748276247D+03
 SCF Done:  E(RHF) =  -829.684159639     A.U. after   11 cycles
 E2 =    -0.6821635341D+00 EUMP2 =    -0.83036632317263D+03
 SCF Done:  E(RHF) =  -829.684332003     A.U. after    8 cycles
 E2 =    -0.6819955341D+00 EUMP2 =    -0.83036632753678D+03
 SCF Done:  E(RHF) =  -829.683145075     A.U. after   11 cycles
 E2 =    -0.6816339681D+00 EUMP2 =    -0.83036477904337D+03
 SCF Done:  E(RHF) =  -829.683359758     A.U. after    8 cycles
 E2 =    -0.6814263035D+00 EUMP2 =    -0.83036478606162D+03
 E2 =    -0.6810232666D+00 EUMP2 =    -0.83036290931274D+03
 E2 =    -0.6807940229D+00 EUMP2 =    -0.83036291847218D+03
 SCF Done:  E(RHF) =  -829.680406150     A.U. after   11 cycles
 E2 =    -0.6803761604D+00 EUMP2 =    -0.83036078231038D+03
 SCF Done:  E(RHF) =  -829.680648777     A.U. after    9 cycles
 E2 =    -0.6801437441D+00 EUMP2 =    -0.83036079252130D+03
 SCF Done:  E(RHF) =  -829.678733030     A.U. after   11 cycles
 E2 =    -0.6797353106D+00 EUMP2 =    -0.83035846834056D+03
 SCF Done:  E(RHF) =  -829.678964387     A.U. after    9 cycles
 E2 =    -0.6795140622D+00 EUMP2 =    -0.83035847844957D+03
 SCF Done:  E(RHF) =  -829.676898088     A.U. after   11 cycles
 E2 =    -0.6791358360D+00 EUMP2 =    -0.83035603392361D+03
 SCF Done:  E(RHF) =  -829.677107796     A.U. after    9 cycles
 E2 =    -0.6789352192D+00 EUMP2 =    -0.83035604301514D+03
 SCF Done:  E(RHF) =  -829.674933170     A.U. after   12 cycles
 E2 =    -0.6786040185D+00 EUMP2 =    -0.83035353718863D+03
 SCF Done:  E(RHF) =  -829.675115576     A.U. after    8 cycles
 E2 =    -0.6784291458D+00 EUMP2 =    -0.83035354472168D+03
    -- Stationary point found.
 SCF Done:  E(RHF) =  -829.672867521     A.U. after   12 cycles
 E2 =    -0.6781575739D+00 EUMP2 =    -0.83035102509521D+03
 SCF Done:  E(RHF) =  -829.673020646     A.U. after    8 cycles
 E2 =    -0.6780102313D+00 EUMP2 =    -0.83035103087733D+03
 Optimization completed.
    -- Stationary point found.

                         Standard orientation:
 ---------------------------------------------------------------------
 Center     Atomic      Atomic             Coordinates (Angstroms)
 Number     Number       Type             X           Y           Z
 ---------------------------------------------------------------------
      1          8           0        1.919473    1.022155   -0.072399
      2         17           0        2.813015   -0.406328    0.000920
      3         53           0       -1.217057   -0.040197   -0.002373
      4          1           0        1.327004    0.860772    0.689291
 ---------------------------------------------------------------------

 The electronic state is 1-A.
 Alpha  occ. eigenvalues -- -104.75271 -20.49714 -10.47240  -7.93959  -7.93680
 Alpha  occ. eigenvalues --   -7.93663  -7.46333  -5.28903  -5.28862  -5.28841
 Alpha  occ. eigenvalues --   -2.01646  -2.01635  -2.01615  -2.01567  -2.01564
 Alpha  occ. eigenvalues --   -1.26780  -0.91956  -0.62431  -0.57267  -0.47114
 Alpha  occ. eigenvalues --   -0.46193  -0.33105  -0.30478  -0.14285  -0.13882
 Alpha  occ. eigenvalues --   -0.13745
 Alpha virt. eigenvalues --    0.14392   0.17038   0.21363   0.22271   0.24326
 Alpha virt. eigenvalues --    0.25280   0.25537   0.26596   0.27008   0.29620
 Alpha virt. eigenvalues --    0.31029   0.31225   0.34017   0.37076   0.38268

 Mulliken charges:
               1
     1  O   -0.374114
     2  Cl   0.079258
     3  I   -0.929430
     4  H    0.224286
 Sum of Mulliken charges =  -1.00000

 Dipole moment (field-independent basis, Debye):
    X=              3.4351    Y=             -0.1734    Z=              0.6968  Tot=              3.5093
 Quadrupole moment (field-independent basis, Debye-Ang):
   XX=            -67.0443   YY=            -53.4961   ZZ=            -52.6439
   XY=             -2.0729   XZ=              1.3503   YZ=              0.9811

 Normal termination of Gaussian 16 at Mon Sep 27 17:30:15 2021.
