 Gaussian 16, Revision B.01,
 Gaussian 16:  ES64L-G16RevB.01 20-Dec-2017

 --------------------------------------------------------
 #p pop=NBO SP NoSymm mp2/gen Pseudo=read density=current
 --------------------------------------------------------

 -----
 title
 -----
 Symbolic Z-matrix:
 Charge = -1 Multiplicity = 1

                          Input orientation:
 ---------------------------------------------------------------------
 Center     Atomic      Atomic             Coordinates (Angstroms)
 Number     Number       Type             X           Y           Z
 ---------------------------------------------------------------------
      1          8           0        0.000000    0.000000    0.000000
      2         53           0        3.312298    0.000000    0.000000
      3         17           0       -0.386419    1.641657    0.000000
      4          1           0        0.809224    0.000000    0.566625
 ---------------------------------------------------------------------

 SCF Done:  E(RHF) =  -829.678964462     A.U. after   13 cycles
 E2 =    -0.6795139923D+00 EUMP2 =    -0.83035847845459D+03

 Alpha  occ. eigenvalues -- -104.74850 -20.48888 -10.46808  -7.93526  -7.93250
 Alpha  occ. eigenvalues --   -7.93236  -7.46960  -5.29536  -5.29483  -5.29470
 Alpha  occ. eigenvalues --   -2.02283  -2.02262  -2.02251  -2.02189  -2.02188
 Alpha  occ. eigenvalues --   -1.25773  -0.91484  -0.63242  -0.56376  -0.46454
 Alpha  occ. eigenvalues --   -0.45562  -0.32587  -0.29988  -0.15121  -0.14484
 Alpha  occ. eigenvalues --   -0.14401
 Alpha virt. eigenvalues --    0.14814   0.17304   0.21512   0.22296   0.24142
 Alpha virt. eigenvalues --    0.25191   0.25416   0.27012   0.27715   0.29629
 Alpha virt. eigenvalues --    0.31109   0.32002   0.34231   0.37072   0.38081

 Mulliken charges:
               1
     1  O   -0.404499
     2  I   -0.891311
     3  Cl   0.071425
     4  H    0.224385
 Sum of Mulliken charges =  -1.00000

 Dipole moment (field-independent basis, Debye):
    X=            -12.7802    Y=             -0.4427    Z=              0.4157  Tot=             12.7946
 Quadrupole moment (field-independent basis, Debye-Ang):
   XX=            -99.9935   YY=            -53.2758   ZZ=            -52.8902
   XY=              0.3976   XZ=             -0.0205   YZ=             -0.1795

 Summary of Natural Population Analysis:

                                       Natural Population
                Natural  -----------------------------------------------
    Atom  No    Charge         Core      Valence    Rydberg      Total
 -----------------------------------------------------------------------
      O    1   -0.72182      1.99971     6.61242    0.10969     8.72182
      I    2   -0.93750     45.98384     7.78260    0.17106    53.93750
     Cl    3    0.16906      9.99983     6.68821    0.14290    16.83094
      H    4    0.49026      0.00000     0.48564    0.02410     0.50974
 =======================================================================
   * Total *   -1.00000     57.98338    21.56887    0.44775    80.00000

 Normal termination of Gaussian 16 at Tue Sep 28 09:17:23 2021.
